 vasp.5.4.1 05Feb16 (build Aug 30 2019 09:58:18) complex                        
  
 executed on           IFC91_ompi date 2021.10.03  23:58:38
 running on    4 total cores
 distrk:  each k-point on    4 cores,    1 groups
 distr:  one band on NCORES_PER_BAND=   1 cores,    4 groups


--------------------------------------------------------------------------------------------------------


 INCAR:
 POTCAR:    PAW_PBE Mn_pv 02Aug2007               
 POTCAR:    PAW_PBE Fe_pv 02Aug2007               
 POTCAR:    PAW_PBE As 22Sep2009                  
 POTCAR:    PAW_PBE Mn_pv 02Aug2007               
   VRHFIN =Mn: 3p4s3d                                                           
   LEXCH  = PE                                                                  
   EATOM  =  2025.2664 eV,  148.8529 Ry                                         
                                                                                
   TITEL  = PAW_PBE Mn_pv 02Aug2007                                             
   LULTRA =        F    use ultrasoft PP ?                                      
   IUNSCR =        1    unscreen: 0-lin 1-nonlin 2-no                           
   RPACOR =    2.080    partial core radius                                     
   POMASS =   54.938; ZVAL   =   13.000    mass and valenz                      
   RCORE  =    2.300    outmost cutoff radius                                   
   RWIGS  =    2.500; RWIGS  =    1.323    wigner-seitz radius (au A)           
   ENMAX  =  269.864; ENMIN  =  202.398 eV                                      
   ICORE  =        3    local potential                                         
   LCOR   =        T    correct aug charges                                     
   LPAW   =        T    paw PP                                                  
   EAUG   =  569.085                                                            
   DEXC   =    0.000                                                            
   RMAX   =    2.343    core radius for proj-oper                               
   RAUG   =    1.300    factor for augmentation sphere                          
   RDEP   =    2.338    radius for radial grids                                 
   RDEPT  =    1.798    core radius for aug-charge                              
                                                                                
   Atomic configuration                                                         
    8 entries                                                                   
     n  l   j            E        occ.                                          
     1  0  0.50     -6424.8287   2.0000                                         
     2  0  0.50      -739.1154   2.0000                                         
     2  1  1.50      -625.3949   6.0000                                         
     3  0  0.50       -81.6100   2.0000                                         
     3  1  1.50       -50.4667   6.0000                                         
     3  2  2.50        -3.3745   6.0000                                         
     4  0  0.50        -4.1331   1.0000                                         
     4  3  2.50        -1.3606   0.0000                                         
   Description                                                                  
     l       E           TYP  RCUT    TYP  RCUT                                 
     1    -50.4666628     23  2.000                                             
     1     -1.3605826     23  2.000                                             
     2     -3.3744729     23  2.300                                             
     2     -4.7350555     23  2.300                                             
     0     -4.1331431     23  2.300                                             
     0      7.6656591     23  2.300                                             
     3      9.5240782     23  2.300                                             
  local pseudopotential read in
  partial core-charges read in
  partial kinetic energy density read in
  atomic valenz-charges read in
  non local Contribution for L=           1  read in
    real space projection operators read in
  non local Contribution for L=           1  read in
    real space projection operators read in
  non local Contribution for L=           2  read in
    real space projection operators read in
  non local Contribution for L=           2  read in
    real space projection operators read in
  non local Contribution for L=           0  read in
    real space projection operators read in
  non local Contribution for L=           0  read in
    real space projection operators read in
    PAW grid and wavefunctions read in
 
   number of l-projection  operators is LMAX  =           6
   number of lm-projection operators is LMMAX =          18
 
 POTCAR:    PAW_PBE Fe_pv 02Aug2007               
   VRHFIN =Fe:  3pd7s1                                                          
   LEXCH  = PE                                                                  
   EATOM  =  2457.4239 eV,  180.6156 Ry                                         
                                                                                
   TITEL  = PAW_PBE Fe_pv 02Aug2007                                             
   LULTRA =        F    use ultrasoft PP ?                                      
   IUNSCR =        1    unscreen: 0-lin 1-nonlin 2-no                           
   RPACOR =    1.750    partial core radius                                     
   POMASS =   55.847; ZVAL   =   14.000    mass and valenz                      
   RCORE  =    2.200    outmost cutoff radius                                   
   RWIGS  =    2.200; RWIGS  =    1.164    wigner-seitz radius (au A)           
   ENMAX  =  293.238; ENMIN  =  219.928 eV                                      
   ICORE  =        3    local potential                                         
   LCOR   =        T    correct aug charges                                     
   LPAW   =        T    paw PP                                                  
   EAUG   =  578.342                                                            
   DEXC   =    0.000                                                            
   RMAX   =    2.249    core radius for proj-oper                               
   RAUG   =    1.300    factor for augmentation sphere                          
   RDEP   =    2.296    radius for radial grids                                 
   RDEPT  =    1.766    core radius for aug-charge                              
                                                                                
   Atomic configuration                                                         
    8 entries                                                                   
     n  l   j            E        occ.                                          
     1  0  0.50     -6993.8440   2.0000                                         
     2  0  0.50      -814.6047   2.0000                                         
     2  1  1.50      -693.3689   6.0000                                         
     3  0  0.50       -89.4732   2.0000                                         
     3  1  1.50       -55.6373   6.0000                                         
     3  2  2.50        -3.8151   7.0000                                         
     4  0  0.50        -4.2551   1.0000                                         
     4  3  2.50        -1.3606   0.0000                                         
   Description                                                                  
     l       E           TYP  RCUT    TYP  RCUT                                 
     1    -55.6372668     23  2.000                                             
     1     -5.4423304     23  2.000                                             
     2     -3.8151096     23  2.200                                             
     2     -5.1756922     23  2.200                                             
     0     -4.2550951     23  2.200                                             
     0     27.2116520     23  2.200                                             
     3     -1.3605826     23  2.200                                             
  local pseudopotential read in
  partial core-charges read in
  partial kinetic energy density read in
  atomic valenz-charges read in
  non local Contribution for L=           1  read in
    real space projection operators read in
  non local Contribution for L=           1  read in
    real space projection operators read in
  non local Contribution for L=           2  read in
    real space projection operators read in
  non local Contribution for L=           2  read in
    real space projection operators read in
  non local Contribution for L=           0  read in
    real space projection operators read in
  non local Contribution for L=           0  read in
    real space projection operators read in
    PAW grid and wavefunctions read in
 
   number of l-projection  operators is LMAX  =           6
   number of lm-projection operators is LMMAX =          18
 
 POTCAR:    PAW_PBE As 22Sep2009                  
   VRHFIN =As: s2p3                                                             
   LEXCH  = PE                                                                  
   EATOM  =   170.1867 eV,   12.5084 Ry                                         
                                                                                
   TITEL  = PAW_PBE As 22Sep2009                                                
   LULTRA =        F    use ultrasoft PP ?                                      
   IUNSCR =        1    unscreen: 0-lin 1-nonlin 2-no                           
   RPACOR =    1.900    partial core radius                                     
   POMASS =   74.922; ZVAL   =    5.000    mass and valenz                      
   RCORE  =    2.100    outmost cutoff radius                                   
   RWIGS  =    2.300; RWIGS  =    1.217    wigner-seitz radius (au A)           
   ENMAX  =  208.702; ENMIN  =  156.526 eV                                      
   ICORE  =        3    local potential                                         
   LCOR   =        T    correct aug charges                                     
   LPAW   =        T    paw PP                                                  
   EAUG   =  462.758                                                            
   DEXC   =    0.000                                                            
   RMAX   =    2.144    core radius for proj-oper                               
   RAUG   =    1.300    factor for augmentation sphere                          
   RDEP   =    2.140    radius for radial grids                                 
   RDEPT  =    1.956    core radius for aug-charge                              
                                                                                
   Atomic configuration                                                         
   10 entries                                                                   
     n  l   j            E        occ.                                          
     1  0  0.50    -11718.0418   2.0000                                         
     2  0  0.50     -1486.5454   2.0000                                         
     2  1  1.50     -1303.3889   6.0000                                         
     3  0  0.50      -190.2849   2.0000                                         
     3  1  1.50      -133.6555   6.0000                                         
     3  2  2.50       -40.6443  10.0000                                         
     4  0  0.50       -14.4936   2.0000                                         
     4  1  0.50        -5.1947   3.0000                                         
     4  2  1.50        -5.4423   0.0000                                         
     4  3  2.50        -5.4423   0.0000                                         
   Description                                                                  
     l       E           TYP  RCUT    TYP  RCUT                                 
     0    -14.4935570     23  2.100                                             
     0    -11.9212055     23  2.100                                             
     1     -5.1947127     23  2.100                                             
     1     27.2116520     23  2.100                                             
     2     -5.4423304     23  2.100                                             
     3     -1.3605826      7  2.100                                             
  local pseudopotential read in
  partial core-charges read in
  partial kinetic energy density read in
  atomic valenz-charges read in
  non local Contribution for L=           0  read in
    real space projection operators read in
  non local Contribution for L=           0  read in
    real space projection operators read in
  non local Contribution for L=           1  read in
    real space projection operators read in
  non local Contribution for L=           1  read in
    real space projection operators read in
  non local Contribution for L=           2  read in
    real space projection operators read in
    PAW grid and wavefunctions read in
 
   number of l-projection  operators is LMAX  =           5
   number of lm-projection operators is LMMAX =          13
 
  PAW_PBE Mn_pv 02Aug2007               :
 energy of atom  1       EATOM=-2025.2664
 kinetic energy error for atom=    0.0062 (will be added to EATOM!!)
  PAW_PBE Fe_pv 02Aug2007               :
 energy of atom  2       EATOM=-2457.4239
 kinetic energy error for atom=    0.0069 (will be added to EATOM!!)
  PAW_PBE As 22Sep2009                  :
 energy of atom  3       EATOM= -170.1867
 kinetic energy error for atom=    0.0005 (will be added to EATOM!!)
 
 
 POSCAR: Mn Fe As                                
  positions in direct lattice
  velocities in cartesian coordinates
 exchange correlation table for  LEXCH =        8
   RHO(1)=    0.500       N(1)  =     2000
   RHO(2)=  100.500       N(2)  =     4000
 


--------------------------------------------------------------------------------------------------------


 ion  position               nearest neighbor table
   1  0.750  0.750  0.750-   3 2.47   4 2.47   4 2.47   4 2.47   4 2.47   3 2.47   3 2.47   3 2.47
                             2 2.85   2 2.85   2 2.85   2 2.85   2 2.85   2 2.85
   2  0.250  0.250  0.250-   3 2.47   4 2.47   3 2.47   3 2.47   3 2.47   4 2.47   4 2.47   4 2.47
                             1 2.85   1 2.85   1 2.85   1 2.85   1 2.85   1 2.85
   3  0.000  0.000  0.000-   1 2.47   2 2.47   1 2.47   1 2.47   1 2.47   2 2.47   2 2.47   2 2.47
                             4 2.85   4 2.85   4 2.85   4 2.85   4 2.85   4 2.85
   4  0.500  0.500  0.500-   1 2.47   2 2.47   2 2.47   2 2.47   2 2.47   1 2.47   1 2.47   1 2.47
                             3 2.85   3 2.85   3 2.85   3 2.85   3 2.85   3 2.85
 
  LATTYP: Found a face centered cubic cell.
 ALAT       =     5.6978522995
  
  Lattice vectors:
  
 A1 = (   0.0000000000,   2.8489261498,   2.8489261498)
 A2 = (   2.8489261498,   0.0000000000,   2.8489261498)
 A3 = (   2.8489261498,   2.8489261498,   0.0000000000)


Analysis of symmetry for initial positions (statically):
=====================================================================
 Subroutine PRICEL returns:
 Original cell was already a primitive cell.
 

 Routine SETGRP: Setting up the symmetry group for a 
 face centered cubic supercell.


 Subroutine GETGRP returns: Found 48 space group operations
 (whereof 48 operations were pure point group operations)
 out of a pool of 48 trial point group operations.


The static configuration has the point symmetry O_h .


Analysis of symmetry for dynamics (positions and initial velocities):
=====================================================================
 Subroutine PRICEL returns:
 Original cell was already a primitive cell.
 

 Routine SETGRP: Setting up the symmetry group for a 
 face centered cubic supercell.


 Subroutine GETGRP returns: Found 48 space group operations
 (whereof 48 operations were pure point group operations)
 out of a pool of 48 trial point group operations.


The dynamic configuration has the point symmetry O_h .


Analysis of structural, dynamic, and magnetic symmetry:
=====================================================================
 Subroutine PRICEL returns:
 Original cell was already a primitive cell.
 

 Routine SETGRP: Setting up the symmetry group for a 
 face centered cubic supercell.


 Subroutine GETGRP returns: Found 24 space group operations
 (whereof 24 operations were pure point group operations)
 out of a pool of 48 trial point group operations.


The magnetic configuration has the point symmetry T_d .


 Subroutine INISYM returns: Found 24 space group operations
 (whereof 24 operations are pure point group operations),
 and found     1 'primitive' translations

 
 
 KPOINTS: Automatic Mesh # Generates Automatically

Automatic generation of k-mesh.
Space group operators:
 irot       det(A)        alpha          n_x          n_y          n_z        tau_x        tau_y        tau_z
    1     1.000000     0.000000     1.000000     0.000000     0.000000     0.000000     0.000000     0.000000
    2     1.000000   120.000000    -0.577350    -0.577350    -0.577350     0.000000     0.000000     0.000000
    3     1.000000   120.000000     0.577350     0.577350     0.577350     0.000000     0.000000     0.000000
    4    -1.000000    90.000000     0.000000     0.000000    -1.000000     0.000000     0.000000     0.000000
    5    -1.000000   180.000000     0.000000     0.707107     0.707107     0.000000     0.000000     0.000000
    6    -1.000000    90.000000     0.000000     1.000000     0.000000     0.000000     0.000000     0.000000
    7     1.000000   180.000000     0.000000     0.000000     1.000000     0.000000     0.000000     0.000000
    8     1.000000   120.000000    -0.577350     0.577350     0.577350     0.000000     0.000000     0.000000
    9     1.000000   120.000000    -0.577350     0.577350    -0.577350     0.000000     0.000000     0.000000
   10    -1.000000    90.000000     0.000000     0.000000     1.000000     0.000000     0.000000     0.000000
   11    -1.000000    90.000000    -1.000000     0.000000     0.000000     0.000000     0.000000     0.000000
   12    -1.000000   180.000000     0.707107     0.000000     0.707107     0.000000     0.000000     0.000000
   13     1.000000   120.000000     0.577350    -0.577350     0.577350     0.000000     0.000000     0.000000
   14     1.000000   120.000000    -0.577350    -0.577350     0.577350     0.000000     0.000000     0.000000
   15     1.000000   180.000000     1.000000     0.000000     0.000000     0.000000     0.000000     0.000000
   16    -1.000000    90.000000     0.000000    -1.000000     0.000000     0.000000     0.000000     0.000000
   17    -1.000000   180.000000     0.707107     0.707107     0.000000     0.000000     0.000000     0.000000
   18    -1.000000    90.000000     1.000000     0.000000     0.000000     0.000000     0.000000     0.000000
   19     1.000000   120.000000     0.577350    -0.577350    -0.577350     0.000000     0.000000     0.000000
   20     1.000000   180.000000     0.000000     1.000000     0.000000     0.000000     0.000000     0.000000
   21     1.000000   120.000000     0.577350     0.577350    -0.577350     0.000000     0.000000     0.000000
   22    -1.000000   180.000000     0.000000    -0.707107     0.707107     0.000000     0.000000     0.000000
   23    -1.000000   180.000000     0.707107    -0.707107     0.000000     0.000000     0.000000     0.000000
   24    -1.000000   180.000000     0.707107     0.000000    -0.707107     0.000000     0.000000     0.000000
 
 Subroutine IBZKPT returns following result:
 ===========================================
 
 Found    120 irreducible k-points:
 
 Following reciprocal coordinates:
            Coordinates               Weight
  0.000000  0.000000  0.000000      1.000000
  0.066667  0.000000  0.000000      8.000000
  0.133333  0.000000  0.000000      8.000000
  0.200000  0.000000  0.000000      8.000000
  0.266667  0.000000  0.000000      8.000000
  0.333333  0.000000  0.000000      8.000000
  0.400000  0.000000  0.000000      8.000000
  0.466667  0.000000  0.000000      8.000000
  0.066667  0.066667  0.000000      6.000000
  0.133333  0.066667  0.000000     24.000000
  0.200000  0.066667  0.000000     24.000000
  0.266667  0.066667  0.000000     24.000000
  0.333333  0.066667  0.000000     24.000000
  0.400000  0.066667  0.000000     24.000000
  0.466667  0.066667  0.000000     24.000000
 -0.466667  0.066667  0.000000     24.000000
 -0.400000  0.066667  0.000000     24.000000
 -0.333333  0.066667  0.000000     24.000000
 -0.266667  0.066667  0.000000     24.000000
 -0.200000  0.066667  0.000000     24.000000
 -0.133333  0.066667  0.000000     24.000000
 -0.066667  0.066667  0.000000     12.000000
  0.133333  0.133333  0.000000      6.000000
  0.200000  0.133333  0.000000     24.000000
  0.266667  0.133333  0.000000     24.000000
  0.333333  0.133333  0.000000     24.000000
  0.400000  0.133333  0.000000     24.000000
  0.466667  0.133333  0.000000     24.000000
 -0.466667  0.133333  0.000000     24.000000
 -0.400000  0.133333  0.000000     24.000000
 -0.333333  0.133333  0.000000     24.000000
 -0.266667  0.133333  0.000000     24.000000
 -0.200000  0.133333  0.000000     24.000000
 -0.133333  0.133333  0.000000     12.000000
  0.200000  0.200000  0.000000      6.000000
  0.266667  0.200000  0.000000     24.000000
  0.333333  0.200000  0.000000     24.000000
  0.400000  0.200000  0.000000     24.000000
  0.466667  0.200000  0.000000     24.000000
 -0.466667  0.200000  0.000000     24.000000
 -0.400000  0.200000  0.000000     24.000000
 -0.333333  0.200000  0.000000     24.000000
 -0.266667  0.200000  0.000000     24.000000
 -0.200000  0.200000  0.000000     12.000000
  0.266667  0.266667  0.000000      6.000000
  0.333333  0.266667  0.000000     24.000000
  0.400000  0.266667  0.000000     24.000000
  0.466667  0.266667  0.000000     24.000000
 -0.466667  0.266667  0.000000     24.000000
 -0.400000  0.266667  0.000000     24.000000
 -0.333333  0.266667  0.000000     24.000000
 -0.266667  0.266667  0.000000     12.000000
  0.333333  0.333333  0.000000      6.000000
  0.400000  0.333333  0.000000     24.000000
  0.466667  0.333333  0.000000     24.000000
 -0.466667  0.333333  0.000000     24.000000
 -0.400000  0.333333  0.000000     24.000000
 -0.333333  0.333333  0.000000     12.000000
  0.400000  0.400000  0.000000      6.000000
  0.466667  0.400000  0.000000     24.000000
 -0.466667  0.400000  0.000000     24.000000
 -0.400000  0.400000  0.000000     12.000000
  0.466667  0.466667  0.000000      6.000000
 -0.466667  0.466667  0.000000     12.000000
  0.200000  0.133333  0.066667     24.000000
  0.266667  0.133333  0.066667     48.000000
  0.333333  0.133333  0.066667     48.000000
  0.400000  0.133333  0.066667     48.000000
  0.466667  0.133333  0.066667     48.000000
 -0.466667  0.133333  0.066667     48.000000
  0.266667  0.200000  0.066667     24.000000
  0.333333  0.200000  0.066667     48.000000
  0.400000  0.200000  0.066667     48.000000
  0.466667  0.200000  0.066667     48.000000
 -0.466667  0.200000  0.066667     48.000000
 -0.400000  0.200000  0.066667     48.000000
 -0.333333  0.200000  0.066667     48.000000
 -0.266667  0.200000  0.066667     48.000000
 -0.200000  0.200000  0.066667     48.000000
 -0.133333  0.200000  0.066667     24.000000
  0.333333  0.266667  0.066667     24.000000
  0.400000  0.266667  0.066667     48.000000
  0.466667  0.266667  0.066667     48.000000
 -0.466667  0.266667  0.066667     48.000000
 -0.400000  0.266667  0.066667     48.000000
 -0.333333  0.266667  0.066667     48.000000
 -0.266667  0.266667  0.066667     48.000000
 -0.200000  0.266667  0.066667     24.000000
  0.400000  0.333333  0.066667     24.000000
  0.466667  0.333333  0.066667     48.000000
 -0.466667  0.333333  0.066667     48.000000
 -0.400000  0.333333  0.066667     48.000000
 -0.333333  0.333333  0.066667     48.000000
 -0.266667  0.333333  0.066667     24.000000
  0.466667  0.400000  0.066667     24.000000
 -0.466667  0.400000  0.066667     48.000000
 -0.400000  0.400000  0.066667     48.000000
 -0.333333  0.400000  0.066667     24.000000
 -0.466667  0.466667  0.066667     24.000000
 -0.400000  0.466667  0.066667     24.000000
  0.400000  0.266667  0.133333     24.000000
  0.466667  0.266667  0.133333     48.000000
 -0.466667  0.266667  0.133333     48.000000
 -0.400000  0.266667  0.133333     48.000000
  0.466667  0.333333  0.133333     24.000000
 -0.466667  0.333333  0.133333     48.000000
 -0.400000  0.333333  0.133333     48.000000
 -0.333333  0.333333  0.133333     48.000000
 -0.266667  0.333333  0.133333     48.000000
 -0.200000  0.333333  0.133333     24.000000
 -0.466667  0.400000  0.133333     24.000000
 -0.400000  0.400000  0.133333     48.000000
 -0.333333  0.400000  0.133333     48.000000
 -0.266667  0.400000  0.133333     24.000000
 -0.400000  0.466667  0.133333     24.000000
 -0.333333  0.466667  0.133333     24.000000
 -0.400000  0.400000  0.200000     24.000000
 -0.333333  0.400000  0.200000     48.000000
 -0.333333  0.466667  0.200000     24.000000
 -0.266667  0.466667  0.200000     24.000000
 
 Following cartesian coordinates:
            Coordinates               Weight
  0.000000  0.000000  0.000000      1.000000
 -0.064352  0.064352  0.064352      8.000000
 -0.128703  0.128703  0.128703      8.000000
 -0.193055  0.193055  0.193055      8.000000
 -0.257407  0.257407  0.257407      8.000000
 -0.321759  0.321759  0.321759      8.000000
 -0.386110  0.386110  0.386110      8.000000
 -0.450462  0.450462  0.450462      8.000000
  0.000000  0.000000  0.128703      6.000000
 -0.064352  0.064352  0.193055     24.000000
 -0.128703  0.128703  0.257407     24.000000
 -0.193055  0.193055  0.321759     24.000000
 -0.257407  0.257407  0.386110     24.000000
 -0.321759  0.321759  0.450462     24.000000
 -0.386110  0.386110  0.514814     24.000000
  0.514814 -0.514814 -0.386110     24.000000
  0.450462 -0.450462 -0.321759     24.000000
  0.386110 -0.386110 -0.257407     24.000000
  0.321759 -0.321759 -0.193055     24.000000
  0.257407 -0.257407 -0.128703     24.000000
  0.193055 -0.193055 -0.064352     24.000000
  0.128703 -0.128703  0.000000     12.000000
  0.000000  0.000000  0.257407      6.000000
 -0.064352  0.064352  0.321759     24.000000
 -0.128703  0.128703  0.386110     24.000000
 -0.193055  0.193055  0.450462     24.000000
 -0.257407  0.257407  0.514814     24.000000
 -0.321759  0.321759  0.579166     24.000000
  0.579166 -0.579166 -0.321759     24.000000
  0.514814 -0.514814 -0.257407     24.000000
  0.450462 -0.450462 -0.193055     24.000000
  0.386110 -0.386110 -0.128703     24.000000
  0.321759 -0.321759 -0.064352     24.000000
  0.257407 -0.257407  0.000000     12.000000
  0.000000  0.000000  0.386110      6.000000
 -0.064352  0.064352  0.450462     24.000000
 -0.128703  0.128703  0.514814     24.000000
 -0.193055  0.193055  0.579166     24.000000
 -0.257407  0.257407  0.643517     24.000000
  0.643517 -0.643517 -0.257407     24.000000
  0.579166 -0.579166 -0.193055     24.000000
  0.514814 -0.514814 -0.128703     24.000000
  0.450462 -0.450462 -0.064352     24.000000
  0.386110 -0.386110  0.000000     12.000000
  0.000000  0.000000  0.514814      6.000000
 -0.064352  0.064352  0.579166     24.000000
 -0.128703  0.128703  0.643517     24.000000
 -0.193055  0.193055  0.707869     24.000000
  0.707869 -0.707869 -0.193055     24.000000
  0.643517 -0.643517 -0.128703     24.000000
  0.579166 -0.579166 -0.064352     24.000000
  0.514814 -0.514814  0.000000     12.000000
  0.000000  0.000000  0.643517      6.000000
 -0.064352  0.064352  0.707869     24.000000
 -0.128703  0.128703  0.772221     24.000000
  0.772221 -0.772221 -0.128703     24.000000
  0.707869 -0.707869 -0.064352     24.000000
  0.643517 -0.643517  0.000000     12.000000
  0.000000  0.000000  0.772221      6.000000
 -0.064352  0.064352  0.836573     24.000000
  0.836573 -0.836573 -0.064352     24.000000
  0.772221 -0.772221  0.000000     12.000000
  0.000000  0.000000  0.900924      6.000000
  0.900924 -0.900924  0.000000     12.000000
  0.000000  0.128703  0.257407     24.000000
 -0.064352  0.193055  0.321759     48.000000
 -0.128703  0.257407  0.386110     48.000000
 -0.193055  0.321759  0.450462     48.000000
 -0.257407  0.386110  0.514814     48.000000
  0.643517 -0.514814 -0.386110     48.000000
 -0.000000  0.128703  0.386110     24.000000
 -0.064352  0.193055  0.450462     48.000000
 -0.128703  0.257407  0.514814     48.000000
 -0.193055  0.321759  0.579166     48.000000
  0.707869 -0.579166 -0.321759     48.000000
  0.643517 -0.514814 -0.257407     48.000000
  0.579166 -0.450462 -0.193055     48.000000
  0.514814 -0.386110 -0.128703     48.000000
  0.450462 -0.321759 -0.064352     48.000000
  0.386110 -0.257407  0.000000     24.000000
  0.000000  0.128703  0.514814     24.000000
 -0.064352  0.193055  0.579166     48.000000
 -0.128703  0.257407  0.643517     48.000000
  0.772221 -0.643517 -0.257407     48.000000
  0.707869 -0.579166 -0.193055     48.000000
  0.643517 -0.514814 -0.128703     48.000000
  0.579166 -0.450462 -0.064352     48.000000
  0.514814 -0.386110  0.000000     24.000000
 -0.000000  0.128703  0.643517     24.000000
 -0.064352  0.193055  0.707869     48.000000
  0.836573 -0.707869 -0.193055     48.000000
  0.772221 -0.643517 -0.128703     48.000000
  0.707869 -0.579166 -0.064352     48.000000
  0.643517 -0.514814 -0.000000     24.000000
 -0.000000  0.128703  0.772221     24.000000
  0.900924 -0.772221 -0.128703     48.000000
  0.836573 -0.707869 -0.064352     48.000000
  0.772221 -0.643517  0.000000     24.000000
  0.965276 -0.836573 -0.064352     24.000000
  0.900924 -0.772221  0.000000     24.000000
  0.000000  0.257407  0.514814     24.000000
 -0.064352  0.321759  0.579166     48.000000
  0.836573 -0.579166 -0.321759     48.000000
  0.772221 -0.514814 -0.257407     48.000000
  0.000000  0.257407  0.643517     24.000000
  0.900924 -0.643517 -0.257407     48.000000
  0.836573 -0.579166 -0.193055     48.000000
  0.772221 -0.514814 -0.128703     48.000000
  0.707869 -0.450462 -0.064352     48.000000
  0.643517 -0.386110 -0.000000     24.000000
  0.965276 -0.707869 -0.193055     24.000000
  0.900924 -0.643517 -0.128703     48.000000
  0.836573 -0.579166 -0.064352     48.000000
  0.772221 -0.514814  0.000000     24.000000
  0.965276 -0.707869 -0.064352     24.000000
  0.900924 -0.643517  0.000000     24.000000
  0.965276 -0.579166 -0.193055     24.000000
  0.900924 -0.514814 -0.128703     48.000000
  0.965276 -0.579166 -0.064352     24.000000
  0.900924 -0.514814  0.000000     24.000000
 


--------------------------------------------------------------------------------------------------------




 Dimension of arrays:
   k-points           NKPTS =    120   k-points in BZ     NKDIM =    120   number of bands    NBANDS=     28
   number of dos      NEDOS =   3000   number of ions     NIONS =      4
   non local maximal  LDIM  =      6   non local SUM 2l+1 LMDIM =     18
   total plane-waves  NPLWV =  27000
   max r-space proj   IRMAX =      1   max aug-charges    IRDMAX= 193448
   dimension x,y,z NGX =    30 NGY =   30 NGZ =   30
   dimension x,y,z NGXF=    60 NGYF=   60 NGZF=   60
   support grid    NGXF=   120 NGYF=  120 NGZF=  120
   ions per type =               2   1   1
 NGX,Y,Z   is equivalent  to a cutoff of  12.38, 12.38, 12.38 a.u.
 NGXF,Y,Z  is equivalent  to a cutoff of  24.76, 24.76, 24.76 a.u.


 I would recommend the setting:
   dimension x,y,z NGX =    29 NGY =   29 NGZ =   29
 SYSTEM =  OPT Job       	                         
 POSCAR =  Mn Fe As                                

 Startparameter for this run:
   NWRITE =      2    write-flag & timer
   PREC   = accura    normal or accurate (medium, high low for compatibility)
   ISTART =      0    job   : 0-new  1-cont  2-samecut
   ICHARG =      2    charge: 1-file 2-atom 10-const
   ISPIN  =      2    spin polarized calculation?
   LNONCOLLINEAR =      F non collinear calculations
   LSORBIT =      F    spin-orbit coupling
   INIWAV =      1    electr: 0-lowe 1-rand  2-diag
   LASPH  =      F    aspherical Exc in radial PAW
   METAGGA=      F    non-selfconsistent MetaGGA calc.

 Electronic Relaxation 1
   ENCUT  =  500.0 eV  36.75 Ry    6.06 a.u.   7.35  7.35  7.35*2*pi/ulx,y,z
   ENINI  =  500.0     initial cutoff
   ENAUG  =  578.3 eV  augmentation charge cutoff
   NELM   =    300;   NELMIN=  2; NELMDL= -6     # of ELM steps 
   EDIFF  = 0.1E-06   stopping-criterion for ELM
   LREAL  =      F    real-space projection
   NLSPLINE    = F    spline interpolate recip. space projectors
   LCOMPAT=      F    compatible to vasp.4.4
   GGA_COMPAT  = T    GGA compatible to vasp.4.4-vasp.4.6
   LMAXPAW     = -100 max onsite density
   LMAXMIX     =    2 max onsite mixed and CHGCAR
   VOSKOWN=      0    Vosko Wilk Nusair interpolation
   ROPT   =    0.00000   0.00000   0.00000
 Ionic relaxation
   EDIFFG = 0.1E-05   stopping-criterion for IOM
   NSW    =      0    number of steps for IOM
   NBLOCK =      1;   KBLOCK =      1    inner block; outer block 
   IBRION =     -1    ionic relax: 0-MD 1-quasi-New 2-CG
   NFREE  =      0    steps in history (QN), initial steepest desc. (CG)
   ISIF   =      3    stress and relaxation
   IWAVPR =     10    prediction:  0-non 1-charg 2-wave 3-comb
   ISYM   =      2    0-nonsym 1-usesym 2-fastsym
   LCORR  =      T    Harris-Foulkes like correction to forces

   POTIM  = 0.1000    time-step for ionic-motion
   TEIN   =    0.0    initial temperature
   TEBEG  =    0.0;   TEEND  =   0.0 temperature during run
   SMASS  =  -3.00    Nose mass-parameter (am)
   estimated Nose-frequenzy (Omega)   =  0.10E-29 period in steps =****** mass=  -0.371E-27a.u.
   SCALEE = 1.0000    scale energy and forces
   NPACO  =    256;   APACO  = 16.0  distance and # of slots for P.C.
   PSTRESS=    0.0 pullay stress

  Mass of Ions in am
   POMASS =  54.94 55.85 74.92
  Ionic Valenz
   ZVAL   =  13.00 14.00  5.00
  Atomic Wigner-Seitz radii
   RWIGS  =  -1.00 -1.00 -1.00
  virtual crystal weights 
   VCA    =   1.00  1.00  1.00
   NELECT =      45.0000    total number of electrons
   NUPDOWN=      -1.0000    fix difference up-down

 DOS related values:
   EMIN   =  10.00;   EMAX   =-10.00  energy-range for DOS
   EFERMI =   0.00
   ISMEAR =     0;   SIGMA  =   0.05  broadening in eV -4-tet -1-fermi 0-gaus

 Electronic relaxation 2 (details)
   IALGO  =     68    algorithm
   LDIAG  =      T    sub-space diagonalisation (order eigenvalues)
   LSUBROT=      F    optimize rotation matrix (better conditioning)
   TURBO    =      0    0=normal 1=particle mesh
   IRESTART =      0    0=no restart 2=restart with 2 vectors
   NREBOOT  =      0    no. of reboots
   NMIN     =      0    reboot dimension
   EREF     =   0.00    reference energy to select bands
   IMIX   =      4    mixing-type and parameters
     AMIX     =   0.40;   BMIX     =  1.00
     AMIX_MAG =   1.60;   BMIX_MAG =  1.00
     AMIN     =   0.10
     WC   =   100.;   INIMIX=   1;  MIXPRE=   1;  MAXMIX= -45

 Intra band minimization:
   WEIMIN = 0.0000     energy-eigenvalue tresh-hold
   EBREAK =  0.89E-09  absolut break condition
   DEPER  =   0.30     relativ break condition  

   TIME   =   0.40     timestep for ELM

  volume/ion in A,a.u.               =      11.56        78.02
  Fermi-wavevector in a.u.,A,eV,Ry     =   1.622263  3.065632 35.806940  2.631736
  Thomas-Fermi vector in A             =   2.715904
 
 Write flags
   LWAVE  =      F    write WAVECAR
   LCHARG =      T    write CHGCAR
   LVTOT  =      F    write LOCPOT, total local potential
   LVHAR  =      F    write LOCPOT, Hartree potential only
   LELF   =      F    write electronic localiz. function (ELF)
   LORBIT =     11    0 simple, 1 ext, 2 COOP (PROOUT)


 Dipole corrections
   LMONO  =      F    monopole corrections only (constant potential shift)
   LDIPOL =      F    correct potential (dipole corrections)
   IDIPOL =      0    1-x, 2-y, 3-z, 4-all directions 
   EPSILON=  1.0000000 bulk dielectric constant

 Exchange correlation treatment:
   GGA     =    --    GGA type
   LEXCH   =     8    internal setting for exchange type
   VOSKOWN=      0    Vosko Wilk Nusair interpolation
   LHFCALC =     F    Hartree Fock is set to
   LHFONE  =     F    Hartree Fock one center treatment
   AEXX    =    0.0000 exact exchange contribution

 Linear response parameters
   LEPSILON=     F    determine dielectric tensor
   LRPA    =     F    only Hartree local field effects (RPA)
   LNABLA  =     F    use nabla operator in PAW spheres
   LVEL    =     F    velocity operator in full k-point grid
   LINTERFAST=   F  fast interpolation
   KINTER  =     0    interpolate to denser k-point grid
   CSHIFT  =0.1000    complex shift for real part using Kramers Kronig
   OMEGAMAX=  -1.0    maximum frequency
   DEG_THRESHOLD= 0.2000000E-02 threshold for treating states as degnerate
   RTIME   =    0.100 relaxation time in fs

 Orbital magnetization related:
   ORBITALMAG=     F  switch on orbital magnetization
   LCHIMAG   =     F  perturbation theory with respect to B field
   DQ        =  0.001000  dq finite difference perturbation B field



--------------------------------------------------------------------------------------------------------


 Static calculation
 charge density and potential will be updated during run
 spin polarized calculation
 RMM-DIIS sequential band-by-band and
  variant of blocked Davidson during initial phase
 perform sub-space diagonalisation
    before iterative eigenvector-optimisation
 modified Broyden-mixing scheme, WC =      100.0
 initial mixing is a Kerker type mixing with AMIX =  0.4000 and BMIX =      1.0000
 Hartree-type preconditioning will be used
 using additional bands            5
 reciprocal scheme for non local part
 use partial core corrections
 calculate Harris-corrections to forces 
   (improved forces if not selfconsistent)
 use gradient corrections 
 use of overlap-Matrix (Vanderbilt PP)
 Gauss-broadening in eV      SIGMA  =   0.05


--------------------------------------------------------------------------------------------------------


  energy-cutoff  :      500.00
  volume of cell :       46.25
      direct lattice vectors                 reciprocal lattice vectors
     0.000000000  2.848926150  2.848926150    -0.175504725  0.175504725  0.175504725
     2.848926150  0.000000000  2.848926150     0.175504725 -0.175504725  0.175504725
     2.848926150  2.848926150  0.000000000     0.175504725  0.175504725 -0.175504725

  length of vectors
     4.028989999  4.028989999  4.028989999     0.303983100  0.303983100  0.303983100


 
 k-points in units of 2pi/SCALE and weight: Automatic Mesh # Generates Automatically
   0.00000000  0.00000000  0.00000000       0.000
  -0.06435173  0.06435173  0.06435173       0.002
  -0.12870346  0.12870346  0.12870346       0.002
  -0.19305520  0.19305520  0.19305520       0.002
  -0.25740693  0.25740693  0.25740693       0.002
  -0.32175866  0.32175866  0.32175866       0.002
  -0.38611039  0.38611039  0.38611039       0.002
  -0.45046213  0.45046213  0.45046213       0.002
   0.00000000  0.00000000  0.12870346       0.002
  -0.06435173  0.06435173  0.19305520       0.007
  -0.12870346  0.12870346  0.25740693       0.007
  -0.19305520  0.19305520  0.32175866       0.007
  -0.25740693  0.25740693  0.38611039       0.007
  -0.32175866  0.32175866  0.45046213       0.007
  -0.38611039  0.38611039  0.51481386       0.007
   0.51481386 -0.51481386 -0.38611039       0.007
   0.45046213 -0.45046213 -0.32175866       0.007
   0.38611039 -0.38611039 -0.25740693       0.007
   0.32175866 -0.32175866 -0.19305520       0.007
   0.25740693 -0.25740693 -0.12870346       0.007
   0.19305520 -0.19305520 -0.06435173       0.007
   0.12870346 -0.12870346  0.00000000       0.004
   0.00000000  0.00000000  0.25740693       0.002
  -0.06435173  0.06435173  0.32175866       0.007
  -0.12870346  0.12870346  0.38611039       0.007
  -0.19305520  0.19305520  0.45046213       0.007
  -0.25740693  0.25740693  0.51481386       0.007
  -0.32175866  0.32175866  0.57916559       0.007
   0.57916559 -0.57916559 -0.32175866       0.007
   0.51481386 -0.51481386 -0.25740693       0.007
   0.45046213 -0.45046213 -0.19305520       0.007
   0.38611039 -0.38611039 -0.12870346       0.007
   0.32175866 -0.32175866 -0.06435173       0.007
   0.25740693 -0.25740693  0.00000000       0.004
   0.00000000  0.00000000  0.38611039       0.002
  -0.06435173  0.06435173  0.45046213       0.007
  -0.12870346  0.12870346  0.51481386       0.007
  -0.19305520  0.19305520  0.57916559       0.007
  -0.25740693  0.25740693  0.64351732       0.007
   0.64351732 -0.64351732 -0.25740693       0.007
   0.57916559 -0.57916559 -0.19305520       0.007
   0.51481386 -0.51481386 -0.12870346       0.007
   0.45046213 -0.45046213 -0.06435173       0.007
   0.38611039 -0.38611039  0.00000000       0.004
   0.00000000  0.00000000  0.51481386       0.002
  -0.06435173  0.06435173  0.57916559       0.007
  -0.12870346  0.12870346  0.64351732       0.007
  -0.19305520  0.19305520  0.70786906       0.007
   0.70786906 -0.70786906 -0.19305520       0.007
   0.64351732 -0.64351732 -0.12870346       0.007
   0.57916559 -0.57916559 -0.06435173       0.007
   0.51481386 -0.51481386  0.00000000       0.004
   0.00000000  0.00000000  0.64351732       0.002
  -0.06435173  0.06435173  0.70786906       0.007
  -0.12870346  0.12870346  0.77222079       0.007
   0.77222079 -0.77222079 -0.12870346       0.007
   0.70786906 -0.70786906 -0.06435173       0.007
   0.64351732 -0.64351732  0.00000000       0.004
   0.00000000  0.00000000  0.77222079       0.002
  -0.06435173  0.06435173  0.83657252       0.007
   0.83657252 -0.83657252 -0.06435173       0.007
   0.77222079 -0.77222079  0.00000000       0.004
   0.00000000  0.00000000  0.90092425       0.002
   0.90092425 -0.90092425  0.00000000       0.004
   0.00000000  0.12870346  0.25740693       0.007
  -0.06435173  0.19305520  0.32175866       0.014
  -0.12870346  0.25740693  0.38611039       0.014
  -0.19305520  0.32175866  0.45046213       0.014
  -0.25740693  0.38611039  0.51481386       0.014
   0.64351732 -0.51481386 -0.38611039       0.014
  -0.00000000  0.12870346  0.38611039       0.007
  -0.06435173  0.19305520  0.45046213       0.014
  -0.12870346  0.25740693  0.51481386       0.014
  -0.19305520  0.32175866  0.57916559       0.014
   0.70786906 -0.57916559 -0.32175866       0.014
   0.64351732 -0.51481386 -0.25740693       0.014
   0.57916559 -0.45046213 -0.19305520       0.014
   0.51481386 -0.38611039 -0.12870346       0.014
   0.45046213 -0.32175866 -0.06435173       0.014
   0.38611039 -0.25740693  0.00000000       0.007
   0.00000000  0.12870346  0.51481386       0.007
  -0.06435173  0.19305520  0.57916559       0.014
  -0.12870346  0.25740693  0.64351732       0.014
   0.77222079 -0.64351732 -0.25740693       0.014
   0.70786906 -0.57916559 -0.19305520       0.014
   0.64351732 -0.51481386 -0.12870346       0.014
   0.57916559 -0.45046213 -0.06435173       0.014
   0.51481386 -0.38611039  0.00000000       0.007
  -0.00000000  0.12870346  0.64351732       0.007
  -0.06435173  0.19305520  0.70786906       0.014
   0.83657252 -0.70786906 -0.19305520       0.014
   0.77222079 -0.64351732 -0.12870346       0.014
   0.70786906 -0.57916559 -0.06435173       0.014
   0.64351732 -0.51481386 -0.00000000       0.007
  -0.00000000  0.12870346  0.77222079       0.007
   0.90092425 -0.77222079 -0.12870346       0.014
   0.83657252 -0.70786906 -0.06435173       0.014
   0.77222079 -0.64351732  0.00000000       0.007
   0.96527599 -0.83657252 -0.06435173       0.007
   0.90092425 -0.77222079  0.00000000       0.007
   0.00000000  0.25740693  0.51481386       0.007
  -0.06435173  0.32175866  0.57916559       0.014
   0.83657252 -0.57916559 -0.32175866       0.014
   0.77222079 -0.51481386 -0.25740693       0.014
   0.00000000  0.25740693  0.64351732       0.007
   0.90092425 -0.64351732 -0.25740693       0.014
   0.83657252 -0.57916559 -0.19305520       0.014
   0.77222079 -0.51481386 -0.12870346       0.014
   0.70786906 -0.45046213 -0.06435173       0.014
   0.64351732 -0.38611039 -0.00000000       0.007
   0.96527599 -0.70786906 -0.19305520       0.007
   0.90092425 -0.64351732 -0.12870346       0.014
   0.83657252 -0.57916559 -0.06435173       0.014
   0.77222079 -0.51481386  0.00000000       0.007
   0.96527599 -0.70786906 -0.06435173       0.007
   0.90092425 -0.64351732  0.00000000       0.007
   0.96527599 -0.57916559 -0.19305520       0.007
   0.90092425 -0.51481386 -0.12870346       0.014
   0.96527599 -0.57916559 -0.06435173       0.007
   0.90092425 -0.51481386  0.00000000       0.007
 
 k-points in reciprocal lattice and weights: Automatic Mesh # Generates Automatically
   0.00000000  0.00000000  0.00000000       0.000
   0.06666667  0.00000000  0.00000000       0.002
   0.13333333  0.00000000  0.00000000       0.002
   0.20000000  0.00000000  0.00000000       0.002
   0.26666667  0.00000000  0.00000000       0.002
   0.33333333  0.00000000  0.00000000       0.002
   0.40000000  0.00000000  0.00000000       0.002
   0.46666667  0.00000000  0.00000000       0.002
   0.06666667  0.06666667  0.00000000       0.002
   0.13333333  0.06666667  0.00000000       0.007
   0.20000000  0.06666667  0.00000000       0.007
   0.26666667  0.06666667  0.00000000       0.007
   0.33333333  0.06666667  0.00000000       0.007
   0.40000000  0.06666667  0.00000000       0.007
   0.46666667  0.06666667  0.00000000       0.007
  -0.46666667  0.06666667  0.00000000       0.007
  -0.40000000  0.06666667  0.00000000       0.007
  -0.33333333  0.06666667  0.00000000       0.007
  -0.26666667  0.06666667  0.00000000       0.007
  -0.20000000  0.06666667  0.00000000       0.007
  -0.13333333  0.06666667  0.00000000       0.007
  -0.06666667  0.06666667  0.00000000       0.004
   0.13333333  0.13333333  0.00000000       0.002
   0.20000000  0.13333333  0.00000000       0.007
   0.26666667  0.13333333  0.00000000       0.007
   0.33333333  0.13333333  0.00000000       0.007
   0.40000000  0.13333333  0.00000000       0.007
   0.46666667  0.13333333  0.00000000       0.007
  -0.46666667  0.13333333  0.00000000       0.007
  -0.40000000  0.13333333  0.00000000       0.007
  -0.33333333  0.13333333  0.00000000       0.007
  -0.26666667  0.13333333  0.00000000       0.007
  -0.20000000  0.13333333  0.00000000       0.007
  -0.13333333  0.13333333  0.00000000       0.004
   0.20000000  0.20000000  0.00000000       0.002
   0.26666667  0.20000000  0.00000000       0.007
   0.33333333  0.20000000  0.00000000       0.007
   0.40000000  0.20000000  0.00000000       0.007
   0.46666667  0.20000000  0.00000000       0.007
  -0.46666667  0.20000000  0.00000000       0.007
  -0.40000000  0.20000000  0.00000000       0.007
  -0.33333333  0.20000000  0.00000000       0.007
  -0.26666667  0.20000000  0.00000000       0.007
  -0.20000000  0.20000000  0.00000000       0.004
   0.26666667  0.26666667  0.00000000       0.002
   0.33333333  0.26666667  0.00000000       0.007
   0.40000000  0.26666667  0.00000000       0.007
   0.46666667  0.26666667  0.00000000       0.007
  -0.46666667  0.26666667  0.00000000       0.007
  -0.40000000  0.26666667  0.00000000       0.007
  -0.33333333  0.26666667  0.00000000       0.007
  -0.26666667  0.26666667  0.00000000       0.004
   0.33333333  0.33333333  0.00000000       0.002
   0.40000000  0.33333333  0.00000000       0.007
   0.46666667  0.33333333  0.00000000       0.007
  -0.46666667  0.33333333  0.00000000       0.007
  -0.40000000  0.33333333  0.00000000       0.007
  -0.33333333  0.33333333  0.00000000       0.004
   0.40000000  0.40000000  0.00000000       0.002
   0.46666667  0.40000000  0.00000000       0.007
  -0.46666667  0.40000000  0.00000000       0.007
  -0.40000000  0.40000000  0.00000000       0.004
   0.46666667  0.46666667  0.00000000       0.002
  -0.46666667  0.46666667  0.00000000       0.004
   0.20000000  0.13333333  0.06666667       0.007
   0.26666667  0.13333333  0.06666667       0.014
   0.33333333  0.13333333  0.06666667       0.014
   0.40000000  0.13333333  0.06666667       0.014
   0.46666667  0.13333333  0.06666667       0.014
  -0.46666667  0.13333333  0.06666667       0.014
   0.26666667  0.20000000  0.06666667       0.007
   0.33333333  0.20000000  0.06666667       0.014
   0.40000000  0.20000000  0.06666667       0.014
   0.46666667  0.20000000  0.06666667       0.014
  -0.46666667  0.20000000  0.06666667       0.014
  -0.40000000  0.20000000  0.06666667       0.014
  -0.33333333  0.20000000  0.06666667       0.014
  -0.26666667  0.20000000  0.06666667       0.014
  -0.20000000  0.20000000  0.06666667       0.014
  -0.13333333  0.20000000  0.06666667       0.007
   0.33333333  0.26666667  0.06666667       0.007
   0.40000000  0.26666667  0.06666667       0.014
   0.46666667  0.26666667  0.06666667       0.014
  -0.46666667  0.26666667  0.06666667       0.014
  -0.40000000  0.26666667  0.06666667       0.014
  -0.33333333  0.26666667  0.06666667       0.014
  -0.26666667  0.26666667  0.06666667       0.014
  -0.20000000  0.26666667  0.06666667       0.007
   0.40000000  0.33333333  0.06666667       0.007
   0.46666667  0.33333333  0.06666667       0.014
  -0.46666667  0.33333333  0.06666667       0.014
  -0.40000000  0.33333333  0.06666667       0.014
  -0.33333333  0.33333333  0.06666667       0.014
  -0.26666667  0.33333333  0.06666667       0.007
   0.46666667  0.40000000  0.06666667       0.007
  -0.46666667  0.40000000  0.06666667       0.014
  -0.40000000  0.40000000  0.06666667       0.014
  -0.33333333  0.40000000  0.06666667       0.007
  -0.46666667  0.46666667  0.06666667       0.007
  -0.40000000  0.46666667  0.06666667       0.007
   0.40000000  0.26666667  0.13333333       0.007
   0.46666667  0.26666667  0.13333333       0.014
  -0.46666667  0.26666667  0.13333333       0.014
  -0.40000000  0.26666667  0.13333333       0.014
   0.46666667  0.33333333  0.13333333       0.007
  -0.46666667  0.33333333  0.13333333       0.014
  -0.40000000  0.33333333  0.13333333       0.014
  -0.33333333  0.33333333  0.13333333       0.014
  -0.26666667  0.33333333  0.13333333       0.014
  -0.20000000  0.33333333  0.13333333       0.007
  -0.46666667  0.40000000  0.13333333       0.007
  -0.40000000  0.40000000  0.13333333       0.014
  -0.33333333  0.40000000  0.13333333       0.014
  -0.26666667  0.40000000  0.13333333       0.007
  -0.40000000  0.46666667  0.13333333       0.007
  -0.33333333  0.46666667  0.13333333       0.007
  -0.40000000  0.40000000  0.20000000       0.007
  -0.33333333  0.40000000  0.20000000       0.014
  -0.33333333  0.46666667  0.20000000       0.007
  -0.26666667  0.46666667  0.20000000       0.007
 
 position of ions in fractional coordinates (direct lattice) 
   0.75000000  0.75000000  0.75000000
   0.25000000  0.25000000  0.25000000
   0.00000000  0.00000000  0.00000000
   0.50000000  0.50000000  0.50000000
 
 position of ions in cartesian coordinates  (Angst):
   4.27338922  4.27338922  4.27338922
   1.42446307  1.42446307  1.42446307
   0.00000000  0.00000000  0.00000000
   2.84892615  2.84892615  2.84892615
 


--------------------------------------------------------------------------------------------------------


 k-point  1 :   0.0000 0.0000 0.0000  plane waves:    1211
 k-point  2 :   0.0667 0.0000 0.0000  plane waves:    1209
 k-point  3 :   0.1333 0.0000 0.0000  plane waves:    1197
 k-point  4 :   0.2000 0.0000 0.0000  plane waves:    1173
 k-point  5 :   0.2667 0.0000 0.0000  plane waves:    1176
 k-point  6 :   0.3333 0.0000 0.0000  plane waves:    1167
 k-point  7 :   0.4000 0.0000 0.0000  plane waves:    1173
 k-point  8 :   0.4667 0.0000 0.0000  plane waves:    1170
 k-point  9 :   0.0667 0.0667 0.0000  plane waves:    1203
 k-point 10 :   0.1333 0.0667 0.0000  plane waves:    1192
 k-point 11 :   0.2000 0.0667 0.0000  plane waves:    1182
 k-point 12 :   0.2667 0.0667 0.0000  plane waves:    1183
 k-point 13 :   0.3333 0.0667 0.0000  plane waves:    1172
 k-point 14 :   0.4000 0.0667 0.0000  plane waves:    1172
 k-point 15 :   0.4667 0.0667 0.0000  plane waves:    1176
 k-point 16 :  -0.4667 0.0667 0.0000  plane waves:    1174
 k-point 17 :  -0.4000 0.0667 0.0000  plane waves:    1175
 k-point 18 :  -0.3333 0.0667 0.0000  plane waves:    1167
 k-point 19 :  -0.2667 0.0667 0.0000  plane waves:    1176
 k-point 20 :  -0.2000 0.0667 0.0000  plane waves:    1181
 k-point 21 :  -0.1333 0.0667 0.0000  plane waves:    1185
 k-point 22 :  -0.0667 0.0667 0.0000  plane waves:    1189
 k-point 23 :   0.1333 0.1333 0.0000  plane waves:    1187
 k-point 24 :   0.2000 0.1333 0.0000  plane waves:    1178
 k-point 25 :   0.2667 0.1333 0.0000  plane waves:    1177
 k-point 26 :   0.3333 0.1333 0.0000  plane waves:    1172
 k-point 27 :   0.4000 0.1333 0.0000  plane waves:    1177
 k-point 28 :   0.4667 0.1333 0.0000  plane waves:    1174
 k-point 29 :  -0.4667 0.1333 0.0000  plane waves:    1171
 k-point 30 :  -0.4000 0.1333 0.0000  plane waves:    1175
 k-point 31 :  -0.3333 0.1333 0.0000  plane waves:    1172
 k-point 32 :  -0.2667 0.1333 0.0000  plane waves:    1172
 k-point 33 :  -0.2000 0.1333 0.0000  plane waves:    1181
 k-point 34 :  -0.1333 0.1333 0.0000  plane waves:    1173
 k-point 35 :   0.2000 0.2000 0.0000  plane waves:    1170
 k-point 36 :   0.2667 0.2000 0.0000  plane waves:    1179
 k-point 37 :   0.3333 0.2000 0.0000  plane waves:    1175
 k-point 38 :   0.4000 0.2000 0.0000  plane waves:    1189
 k-point 39 :   0.4667 0.2000 0.0000  plane waves:    1172
 k-point 40 :  -0.4667 0.2000 0.0000  plane waves:    1172
 k-point 41 :  -0.4000 0.2000 0.0000  plane waves:    1163
 k-point 42 :  -0.3333 0.2000 0.0000  plane waves:    1171
 k-point 43 :  -0.2667 0.2000 0.0000  plane waves:    1178
 k-point 44 :  -0.2000 0.2000 0.0000  plane waves:    1169
 k-point 45 :   0.2667 0.2667 0.0000  plane waves:    1182
 k-point 46 :   0.3333 0.2667 0.0000  plane waves:    1175
 k-point 47 :   0.4000 0.2667 0.0000  plane waves:    1181
 k-point 48 :   0.4667 0.2667 0.0000  plane waves:    1179
 k-point 49 :  -0.4667 0.2667 0.0000  plane waves:    1169
 k-point 50 :  -0.4000 0.2667 0.0000  plane waves:    1168
 k-point 51 :  -0.3333 0.2667 0.0000  plane waves:    1170
 k-point 52 :  -0.2667 0.2667 0.0000  plane waves:    1171
 k-point 53 :   0.3333 0.3333 0.0000  plane waves:    1174
 k-point 54 :   0.4000 0.3333 0.0000  plane waves:    1177
 k-point 55 :   0.4667 0.3333 0.0000  plane waves:    1177
 k-point 56 :  -0.4667 0.3333 0.0000  plane waves:    1167
 k-point 57 :  -0.4000 0.3333 0.0000  plane waves:    1162
 k-point 58 :  -0.3333 0.3333 0.0000  plane waves:    1182
 k-point 59 :   0.4000 0.4000 0.0000  plane waves:    1190
 k-point 60 :   0.4667 0.4000 0.0000  plane waves:    1174
 k-point 61 :  -0.4667 0.4000 0.0000  plane waves:    1166
 k-point 62 :  -0.4000 0.4000 0.0000  plane waves:    1156
 k-point 63 :   0.4667 0.4667 0.0000  plane waves:    1162
 k-point 64 :  -0.4667 0.4667 0.0000  plane waves:    1170
 k-point 65 :   0.2000 0.1333 0.0667  plane waves:    1187
 k-point 66 :   0.2667 0.1333 0.0667  plane waves:    1184
 k-point 67 :   0.3333 0.1333 0.0667  plane waves:    1175
 k-point 68 :   0.4000 0.1333 0.0667  plane waves:    1170
 k-point 69 :   0.4667 0.1333 0.0667  plane waves:    1170
 k-point 70 :  -0.4667 0.1333 0.0667  plane waves:    1180
 k-point 71 :   0.2667 0.2000 0.0667  plane waves:    1179
 k-point 72 :   0.3333 0.2000 0.0667  plane waves:    1172
 k-point 73 :   0.4000 0.2000 0.0667  plane waves:    1175
 k-point 74 :   0.4667 0.2000 0.0667  plane waves:    1173
 k-point 75 :  -0.4667 0.2000 0.0667  plane waves:    1175
 k-point 76 :  -0.4000 0.2000 0.0667  plane waves:    1173
 k-point 77 :  -0.3333 0.2000 0.0667  plane waves:    1171
 k-point 78 :  -0.2667 0.2000 0.0667  plane waves:    1169
 k-point 79 :  -0.2000 0.2000 0.0667  plane waves:    1174
 k-point 80 :  -0.1333 0.2000 0.0667  plane waves:    1174
 k-point 81 :   0.3333 0.2667 0.0667  plane waves:    1175
 k-point 82 :   0.4000 0.2667 0.0667  plane waves:    1174
 k-point 83 :   0.4667 0.2667 0.0667  plane waves:    1173
 k-point 84 :  -0.4667 0.2667 0.0667  plane waves:    1175
 k-point 85 :  -0.4000 0.2667 0.0667  plane waves:    1172
 k-point 86 :  -0.3333 0.2667 0.0667  plane waves:    1168
 k-point 87 :  -0.2667 0.2667 0.0667  plane waves:    1167
 k-point 88 :  -0.2000 0.2667 0.0667  plane waves:    1171
 k-point 89 :   0.4000 0.3333 0.0667  plane waves:    1174
 k-point 90 :   0.4667 0.3333 0.0667  plane waves:    1177
 k-point 91 :  -0.4667 0.3333 0.0667  plane waves:    1177
 k-point 92 :  -0.4000 0.3333 0.0667  plane waves:    1168
 k-point 93 :  -0.3333 0.3333 0.0667  plane waves:    1166
 k-point 94 :  -0.2667 0.3333 0.0667  plane waves:    1168
 k-point 95 :   0.4667 0.4000 0.0667  plane waves:    1172
 k-point 96 :  -0.4667 0.4000 0.0667  plane waves:    1172
 k-point 97 :  -0.4000 0.4000 0.0667  plane waves:    1170
 k-point 98 :  -0.3333 0.4000 0.0667  plane waves:    1169
 k-point 99 :  -0.4667 0.4667 0.0667  plane waves:    1178
 k-point ** :  -0.4000 0.4667 0.0667  plane waves:    1171
 k-point ** :   0.4000 0.2667 0.1333  plane waves:    1184
 k-point ** :   0.4667 0.2667 0.1333  plane waves:    1176
 k-point ** :  -0.4667 0.2667 0.1333  plane waves:    1175
 k-point ** :  -0.4000 0.2667 0.1333  plane waves:    1171
 k-point ** :   0.4667 0.3333 0.1333  plane waves:    1171
 k-point ** :  -0.4667 0.3333 0.1333  plane waves:    1175
 k-point ** :  -0.4000 0.3333 0.1333  plane waves:    1175
 k-point ** :  -0.3333 0.3333 0.1333  plane waves:    1175
 k-point ** :  -0.2667 0.3333 0.1333  plane waves:    1172
 k-point ** :  -0.2000 0.3333 0.1333  plane waves:    1172
 k-point ** :  -0.4667 0.4000 0.1333  plane waves:    1181
 k-point ** :  -0.4000 0.4000 0.1333  plane waves:    1177
 k-point ** :  -0.3333 0.4000 0.1333  plane waves:    1172
 k-point ** :  -0.2667 0.4000 0.1333  plane waves:    1175
 k-point ** :  -0.4000 0.4667 0.1333  plane waves:    1173
 k-point ** :  -0.3333 0.4667 0.1333  plane waves:    1174
 k-point ** :  -0.4000 0.4000 0.2000  plane waves:    1175
 k-point ** :  -0.3333 0.4000 0.2000  plane waves:    1174
 k-point ** :  -0.3333 0.4667 0.2000  plane waves:    1172
 k-point ** :  -0.2667 0.4667 0.2000  plane waves:    1180

 maximum and minimum number of plane-waves per node :      1211     1156

 maximum number of plane-waves:      1211
 maximum index in each direction: 
   IXMAX=    7   IYMAX=    7   IZMAX=    7
   IXMIN=   -7   IYMIN=   -7   IZMIN=   -7

 NGX is ok and might be reduce to  30
 NGY is ok and might be reduce to  30
 NGZ is ok and might be reduce to  30

 serial   3D FFT for wavefunctions
 parallel 3D FFT for charge:
    minimum data exchange during FFTs selected (reduces bandwidth)


 total amount of memory used by VASP on root node   142625. kBytes
========================================================================

   base      :      30000. kBytes
   nonl-proj :      62907. kBytes
   fftplans  :       8118. kBytes
   grid      :       7070. kBytes
   one-center:        124. kBytes
   wavefun   :      34406. kBytes
 
     INWAV:  cpu time    0.0000: real time    0.0001
 Broyden mixing: mesh for mixing (old mesh)
   NGX = 15   NGY = 15   NGZ = 15
  (NGX  = 60   NGY  = 60   NGZ  = 60)
  gives a total of   3375 points

 initial charge density was supplied:
 charge density of overlapping atoms calculated
 number of electron      45.0000000 magnetization      -0.5000000
 keeping initial charge density in first step


--------------------------------------------------------------------------------------------------------


 Maximum index for augmentation-charges        46879 (set IRDMAX)


--------------------------------------------------------------------------------------------------------


 First call to EWALD:  gamma=   0.494
 Maximum number of real-space cells 3x 3x 3
 Maximum number of reciprocal cells 3x 3x 3

 FEWALD executed in parallel
    FEWALD:  cpu time    0.0010: real time    0.0011


----------------------------------------- Iteration    1(   1)  ---------------------------------------


    POTLOK:  cpu time    0.0590: real time    0.0586
    SETDIJ:  cpu time    0.1670: real time    0.1690
     EDDAV:  cpu time    7.0959: real time    7.1093
       DOS:  cpu time    0.0050: real time    0.0049
    --------------------------------------------
      LOOP:  cpu time    7.3279: real time    7.3449

 eigenvalue-minimisations  : 14112
 total energy-change (2. order) : 0.5139915E+03  (-0.2531520E+04)
 number of electron      45.0000000 magnetization      -0.5000000
 augmentation part       45.0000000 magnetization      -0.5000000

 Free energy of the ion-electron system (eV)
  ---------------------------------------------------
  alpha Z        PSCENC =       313.80693554
  Ewald energy   TEWEN  =     -4897.95381838
  -Hartree energ DENC   =     -1733.27789859
  -exchange      EXHF   =         0.00000000
  -V(xc)+E(xc)   XCENC  =       200.63937207
  PAW double counting   =      5439.98770429    -5609.87680171
  entropy T*S    EENTRO =        -0.00268819
  eigenvalues    EBANDS =       122.54509183
  atomic energy  EATOM  =      6678.12361163
  Solvation  Ediel_sol  =         0.00000000
  ---------------------------------------------------
  free energy    TOTEN  =       513.99150849 eV

  energy without entropy =      513.99419668  energy(sigma->0) =      513.99285259


--------------------------------------------------------------------------------------------------------




----------------------------------------- Iteration    1(   2)  ---------------------------------------


     EDDAV:  cpu time    6.8710: real time    6.8838
       DOS:  cpu time    0.0060: real time    0.0059
    --------------------------------------------
      LOOP:  cpu time    6.8770: real time    6.9018

 eigenvalue-minimisations  : 13476
 total energy-change (2. order) :-0.5114742E+03  (-0.4987849E+03)
 number of electron      45.0000000 magnetization      -0.5000000
 augmentation part       45.0000000 magnetization      -0.5000000

 Free energy of the ion-electron system (eV)
  ---------------------------------------------------
  alpha Z        PSCENC =       313.80693554
  Ewald energy   TEWEN  =     -4897.95381838
  -Hartree energ DENC   =     -1733.27789859
  -exchange      EXHF   =         0.00000000
  -V(xc)+E(xc)   XCENC  =       200.63937207
  PAW double counting   =      5439.98770429    -5609.87680171
  entropy T*S    EENTRO =        -0.00593065
  eigenvalues    EBANDS =      -388.92586313
  atomic energy  EATOM  =      6678.12361163
  Solvation  Ediel_sol  =         0.00000000
  ---------------------------------------------------
  free energy    TOTEN  =         2.51731107 eV

  energy without entropy =        2.52324172  energy(sigma->0) =        2.52027639


--------------------------------------------------------------------------------------------------------




----------------------------------------- Iteration    1(   3)  ---------------------------------------


     EDDAV:  cpu time    7.2599: real time    7.2741
       DOS:  cpu time    0.0070: real time    0.0061
    --------------------------------------------
      LOOP:  cpu time    7.2679: real time    7.2838

 eigenvalue-minimisations  : 14828
 total energy-change (2. order) :-0.3507265E+02  (-0.3323245E+02)
 number of electron      45.0000000 magnetization      -0.5000000
 augmentation part       45.0000000 magnetization      -0.5000000

 Free energy of the ion-electron system (eV)
  ---------------------------------------------------
  alpha Z        PSCENC =       313.80693554
  Ewald energy   TEWEN  =     -4897.95381838
  -Hartree energ DENC   =     -1733.27789859
  -exchange      EXHF   =         0.00000000
  -V(xc)+E(xc)   XCENC  =       200.63937207
  PAW double counting   =      5439.98770429    -5609.87680171
  entropy T*S    EENTRO =        -0.00557640
  eigenvalues    EBANDS =      -423.99886365
  atomic energy  EATOM  =      6678.12361163
  Solvation  Ediel_sol  =         0.00000000
  ---------------------------------------------------
  free energy    TOTEN  =       -32.55533521 eV

  energy without entropy =      -32.54975881  energy(sigma->0) =      -32.55254701


--------------------------------------------------------------------------------------------------------




----------------------------------------- Iteration    1(   4)  ---------------------------------------


     EDDAV:  cpu time    7.5599: real time    7.5677
       DOS:  cpu time    0.0060: real time    0.0061
    --------------------------------------------
      LOOP:  cpu time    7.5658: real time    7.5771

 eigenvalue-minimisations  : 15536
 total energy-change (2. order) :-0.1149703E+01  (-0.1129704E+01)
 number of electron      45.0000000 magnetization      -0.5000000
 augmentation part       45.0000000 magnetization      -0.5000000

 Free energy of the ion-electron system (eV)
  ---------------------------------------------------
  alpha Z        PSCENC =       313.80693554
  Ewald energy   TEWEN  =     -4897.95381838
  -Hartree energ DENC   =     -1733.27789859
  -exchange      EXHF   =         0.00000000
  -V(xc)+E(xc)   XCENC  =       200.63937207
  PAW double counting   =      5439.98770429    -5609.87680171
  entropy T*S    EENTRO =        -0.00512691
  eigenvalues    EBANDS =      -425.14901574
  atomic energy  EATOM  =      6678.12361163
  Solvation  Ediel_sol  =         0.00000000
  ---------------------------------------------------
  free energy    TOTEN  =       -33.70503781 eV

  energy without entropy =      -33.69991090  energy(sigma->0) =      -33.70247435


--------------------------------------------------------------------------------------------------------




----------------------------------------- Iteration    1(   5)  ---------------------------------------


     EDDAV:  cpu time    7.5239: real time    7.5321
       DOS:  cpu time    0.0060: real time    0.0063
    --------------------------------------------
      LOOP:  cpu time    7.5299: real time    7.5415

 eigenvalue-minimisations  : 15560
 total energy-change (2. order) :-0.2494046E-01  (-0.2491257E-01)
 number of electron      45.0000000 magnetization      -0.5000000
 augmentation part       45.0000000 magnetization      -0.5000000

 Free energy of the ion-electron system (eV)
  ---------------------------------------------------
  alpha Z        PSCENC =       313.80693554
  Ewald energy   TEWEN  =     -4897.95381838
  -Hartree energ DENC   =     -1733.27789859
  -exchange      EXHF   =         0.00000000
  -V(xc)+E(xc)   XCENC  =       200.63937207
  PAW double counting   =      5439.98770429    -5609.87680171
  entropy T*S    EENTRO =        -0.00515400
  eigenvalues    EBANDS =      -425.17392912
  atomic energy  EATOM  =      6678.12361163
  Solvation  Ediel_sol  =         0.00000000
  ---------------------------------------------------
  free energy    TOTEN  =       -33.72997828 eV

  energy without entropy =      -33.72482427  energy(sigma->0) =      -33.72740127


--------------------------------------------------------------------------------------------------------




----------------------------------------- Iteration    1(   6)  ---------------------------------------


     EDDAV:  cpu time    7.5728: real time    7.5818
       DOS:  cpu time    0.0070: real time    0.0068
    CHARGE:  cpu time    0.5519: real time    0.5516
    MIXING:  cpu time    0.0020: real time    0.0021
    --------------------------------------------
      LOOP:  cpu time    8.1348: real time    8.1455

 eigenvalue-minimisations  : 15776
 total energy-change (2. order) :-0.8784806E-03  (-0.8783753E-03)
 number of electron      45.0000001 magnetization      -1.1262176
 augmentation part       20.5657862 magnetization      -0.8158102

 Broyden mixing:
  rms(total) = 0.22745E+01    rms(broyden)= 0.22744E+01
  rms(prec ) = 0.43197E+01
  weight for this iteration     100.00

 Free energy of the ion-electron system (eV)
  ---------------------------------------------------
  alpha Z        PSCENC =       313.80693554
  Ewald energy   TEWEN  =     -4897.95381838
  -Hartree energ DENC   =     -1733.27789859
  -exchange      EXHF   =         0.00000000
  -V(xc)+E(xc)   XCENC  =       200.63937207
  PAW double counting   =      5439.98770429    -5609.87680171
  entropy T*S    EENTRO =        -0.00515427
  eigenvalues    EBANDS =      -425.17480733
  atomic energy  EATOM  =      6678.12361163
  Solvation  Ediel_sol  =         0.00000000
  ---------------------------------------------------
  free energy    TOTEN  =       -33.73085676 eV

  energy without entropy =      -33.72570248  energy(sigma->0) =      -33.72827962


--------------------------------------------------------------------------------------------------------




----------------------------------------- Iteration    1(   7)  ---------------------------------------


    POTLOK:  cpu time    0.0570: real time    0.0578
    SETDIJ:  cpu time    0.1680: real time    0.1684
    EDDIAG:  cpu time    1.2298: real time    1.2307
  RMM-DIIS:  cpu time    5.2252: real time    5.2310
    ORTHCH:  cpu time    0.0620: real time    0.0617
       DOS:  cpu time    0.0060: real time    0.0061
    CHARGE:  cpu time    0.5799: real time    0.5803
    MIXING:  cpu time    0.0020: real time    0.0023
    --------------------------------------------
      LOOP:  cpu time    7.3309: real time    7.3416

 eigenvalue-minimisations  : 13786
 total energy-change (2. order) : 0.7472940E+00  (-0.5580212E+01)
 number of electron      45.0000001 magnetization      -2.0294250
 augmentation part       23.1420210 magnetization      -1.1769075

 Broyden mixing:
  rms(total) = 0.16913E+01    rms(broyden)= 0.16912E+01
  rms(prec ) = 0.42763E+01
  weight for this iteration     100.00

 eigenvalues of (default mixing * dielectric matrix)
  average eigenvalue GAMMA=   0.5540
  0.5540

 Free energy of the ion-electron system (eV)
  ---------------------------------------------------
  alpha Z        PSCENC =       313.80693554
  Ewald energy   TEWEN  =     -4897.95381838
  -Hartree energ DENC   =     -1615.47896883
  -exchange      EXHF   =         0.00000000
  -V(xc)+E(xc)   XCENC  =       195.18045339
  PAW double counting   =      5664.88614555    -5830.14021419
  entropy T*S    EENTRO =        -0.00711790
  eigenvalues    EBANDS =      -541.40058957
  atomic energy  EATOM  =      6678.12361163
  Solvation  Ediel_sol  =         0.00000000
  ---------------------------------------------------
  free energy    TOTEN  =       -32.98356277 eV

  energy without entropy =      -32.97644486  energy(sigma->0) =      -32.98000382


--------------------------------------------------------------------------------------------------------




----------------------------------------- Iteration    1(   8)  ---------------------------------------


    POTLOK:  cpu time    0.0580: real time    0.0581
    SETDIJ:  cpu time    0.1680: real time    0.1686
    EDDIAG:  cpu time    1.2248: real time    1.2267
  RMM-DIIS:  cpu time    5.5292: real time    5.5349
    ORTHCH:  cpu time    0.0620: real time    0.0612
       DOS:  cpu time    0.0050: real time    0.0058
    CHARGE:  cpu time    0.5499: real time    0.5501
    MIXING:  cpu time    0.0020: real time    0.0017
    --------------------------------------------
      LOOP:  cpu time    7.5998: real time    7.6107

 eigenvalue-minimisations  : 14920
 total energy-change (2. order) :-0.3121425E+01  (-0.1369567E+01)
 number of electron      45.0000001 magnetization      -1.9102112
 augmentation part       22.8866937 magnetization      -2.0740830

 Broyden mixing:
  rms(total) = 0.34131E+01    rms(broyden)= 0.34129E+01
  rms(prec ) = 0.10142E+02
  weight for this iteration     100.00

 eigenvalues of (default mixing * dielectric matrix)
  average eigenvalue GAMMA=   0.4540
  0.7313  0.1767

 Free energy of the ion-electron system (eV)
  ---------------------------------------------------
  alpha Z        PSCENC =       313.80693554
  Ewald energy   TEWEN  =     -4897.95381838
  -Hartree energ DENC   =     -1637.12944269
  -exchange      EXHF   =         0.00000000
  -V(xc)+E(xc)   XCENC  =       196.43318595
  PAW double counting   =      5802.46615904    -5970.42446725
  entropy T*S    EENTRO =        -0.00483160
  eigenvalues    EBANDS =      -521.42231968
  atomic energy  EATOM  =      6678.12361163
  Solvation  Ediel_sol  =         0.00000000
  ---------------------------------------------------
  free energy    TOTEN  =       -36.10498744 eV

  energy without entropy =      -36.10015584  energy(sigma->0) =      -36.10257164


--------------------------------------------------------------------------------------------------------




----------------------------------------- Iteration    1(   9)  ---------------------------------------


    POTLOK:  cpu time    0.0570: real time    0.0580
    SETDIJ:  cpu time    0.1710: real time    0.1703
    EDDIAG:  cpu time    1.2258: real time    1.2268
  RMM-DIIS:  cpu time    5.5242: real time    5.5299
    ORTHCH:  cpu time    0.0600: real time    0.0600
       DOS:  cpu time    0.0060: real time    0.0061
    CHARGE:  cpu time    0.5629: real time    0.5644
    MIXING:  cpu time    0.0030: real time    0.0024
    --------------------------------------------
      LOOP:  cpu time    7.6108: real time    7.6214

 eigenvalue-minimisations  : 15108
 total energy-change (2. order) : 0.5112335E+01  (-0.8287972E+00)
 number of electron      45.0000001 magnetization      -1.9459554
 augmentation part       22.2986309 magnetization      -1.3444882

 Broyden mixing:
  rms(total) = 0.57962E+00    rms(broyden)= 0.57923E+00
  rms(prec ) = 0.14921E+01
  weight for this iteration     100.00

 eigenvalues of (default mixing * dielectric matrix)
  average eigenvalue GAMMA=   0.5865
  1.1400  0.4892  0.1303

 Free energy of the ion-electron system (eV)
  ---------------------------------------------------
  alpha Z        PSCENC =       313.80693554
  Ewald energy   TEWEN  =     -4897.95381838
  -Hartree energ DENC   =     -1652.03454200
  -exchange      EXHF   =         0.00000000
  -V(xc)+E(xc)   XCENC  =       196.87284540
  PAW double counting   =      5896.79937016    -6068.08286441
  entropy T*S    EENTRO =        -0.00670413
  eigenvalues    EBANDS =      -498.51748575
  atomic energy  EATOM  =      6678.12361163
  Solvation  Ediel_sol  =         0.00000000
  ---------------------------------------------------
  free energy    TOTEN  =       -30.99265195 eV

  energy without entropy =      -30.98594781  energy(sigma->0) =      -30.98929988


--------------------------------------------------------------------------------------------------------




----------------------------------------- Iteration    1(  10)  ---------------------------------------


    POTLOK:  cpu time    0.0580: real time    0.0589
    SETDIJ:  cpu time    0.1700: real time    0.1697
    EDDIAG:  cpu time    1.2278: real time    1.2292
  RMM-DIIS:  cpu time    6.1561: real time    6.1628
    ORTHCH:  cpu time    0.0600: real time    0.0602
       DOS:  cpu time    0.0060: real time    0.0060
    CHARGE:  cpu time    0.5729: real time    0.5726
    MIXING:  cpu time    0.0010: real time    0.0017
    --------------------------------------------
      LOOP:  cpu time    8.2527: real time    8.2648

 eigenvalue-minimisations  : 16511
 total energy-change (2. order) :-0.8852872E-01  (-0.1173906E+00)
 number of electron      45.0000001 magnetization      -2.3558010
 augmentation part       22.2811518 magnetization      -1.4992046

 Broyden mixing:
  rms(total) = 0.96143E+00    rms(broyden)= 0.96138E+00
  rms(prec ) = 0.25602E+01
  weight for this iteration     100.00

 eigenvalues of (default mixing * dielectric matrix)
  average eigenvalue GAMMA=   0.4972
  1.2487  0.5086  0.1157  0.1157

 Free energy of the ion-electron system (eV)
  ---------------------------------------------------
  alpha Z        PSCENC =       313.80693554
  Ewald energy   TEWEN  =     -4897.95381838
  -Hartree energ DENC   =     -1652.47228364
  -exchange      EXHF   =         0.00000000
  -V(xc)+E(xc)   XCENC  =       196.84318248
  PAW double counting   =      5957.65007542    -6129.99740237
  entropy T*S    EENTRO =        -0.00457630
  eigenvalues    EBANDS =      -497.07690505
  atomic energy  EATOM  =      6678.12361163
  Solvation  Ediel_sol  =         0.00000000
  ---------------------------------------------------
  free energy    TOTEN  =       -31.08118067 eV

  energy without entropy =      -31.07660437  energy(sigma->0) =      -31.07889252


--------------------------------------------------------------------------------------------------------




----------------------------------------- Iteration    1(  11)  ---------------------------------------


    POTLOK:  cpu time    0.0580: real time    0.0583
    SETDIJ:  cpu time    0.1720: real time    0.1729
    EDDIAG:  cpu time    1.2338: real time    1.2343
  RMM-DIIS:  cpu time    5.7051: real time    5.7112
    ORTHCH:  cpu time    0.0610: real time    0.0610
       DOS:  cpu time    0.0060: real time    0.0061
    CHARGE:  cpu time    0.5719: real time    0.5727
    MIXING:  cpu time    0.0020: real time    0.0022
    --------------------------------------------
      LOOP:  cpu time    7.8108: real time    7.8217

 eigenvalue-minimisations  : 15282
 total energy-change (2. order) : 0.2798689E+00  (-0.5288430E-01)
 number of electron      45.0000001 magnetization      -2.6943187
 augmentation part       22.2520025 magnetization      -1.8936912

 Broyden mixing:
  rms(total) = 0.39871E+00    rms(broyden)= 0.39869E+00
  rms(prec ) = 0.92906E+00
  weight for this iteration     100.00

 eigenvalues of (default mixing * dielectric matrix)
  average eigenvalue GAMMA=   0.6769
  1.8845  0.6156  0.6156  0.1420  0.1266

 Free energy of the ion-electron system (eV)
  ---------------------------------------------------
  alpha Z        PSCENC =       313.80693554
  Ewald energy   TEWEN  =     -4897.95381838
  -Hartree energ DENC   =     -1649.74980628
  -exchange      EXHF   =         0.00000000
  -V(xc)+E(xc)   XCENC  =       196.84640313
  PAW double counting   =      6073.32831981    -6246.80183342
  entropy T*S    EENTRO =        -0.00500732
  eigenvalues    EBANDS =      -498.39611651
  atomic energy  EATOM  =      6678.12361163
  Solvation  Ediel_sol  =         0.00000000
  ---------------------------------------------------
  free energy    TOTEN  =       -30.80131180 eV

  energy without entropy =      -30.79630448  energy(sigma->0) =      -30.79880814


--------------------------------------------------------------------------------------------------------




----------------------------------------- Iteration    1(  12)  ---------------------------------------


    POTLOK:  cpu time    0.0580: real time    0.0578
    SETDIJ:  cpu time    0.1690: real time    0.1694
    EDDIAG:  cpu time    1.2458: real time    1.2479
  RMM-DIIS:  cpu time    6.4040: real time    6.4142
    ORTHCH:  cpu time    0.0610: real time    0.0609
       DOS:  cpu time    0.0060: real time    0.0058
    CHARGE:  cpu time    0.5679: real time    0.5694
    MIXING:  cpu time    0.0020: real time    0.0027
    --------------------------------------------
[...]
      3     -44.0837      1.00000
      4     -37.1564      1.00000
      5     -37.1450      1.00000
      6     -37.1159      1.00000
      7     -37.0640      1.00000
      8     -37.0371      1.00000
      9     -37.0313      1.00000
     10      -1.4902      1.00000
     11       3.9196      1.00000
     12       4.8931      1.00000
     13       5.5806      1.00000
     14       6.7793      1.00000
     15       7.4909      1.00000
     16       7.5387      1.00000
     17       7.6540      1.00000
     18       8.1339      1.00000
     19       8.9129      1.00000
     20       8.9440      1.00000
     21       9.3485      1.00000
     22       9.8797      1.00000
     23      10.3966      1.00000
     24      10.3969      1.00000
     25      10.6817      1.00000
     26      11.3667      0.00000
     27      11.7094      0.00000
     28      11.8191      0.00000

 k-point   117 :      -0.4000    0.4000    0.2000
  band No.  band energies     occupation 
      1     -44.0858      1.00000
      2     -44.0849      1.00000
      3     -44.0840      1.00000
      4     -37.1475      1.00000
      5     -37.1435      1.00000
      6     -37.1051      1.00000
      7     -37.0750      1.00000
      8     -37.0422      1.00000
      9     -37.0358      1.00000
     10      -1.5827      1.00000
     11       3.8527      1.00000
     12       4.8594      1.00000
     13       5.4865      1.00000
     14       6.9273      1.00000
     15       7.4579      1.00000
     16       7.6364      1.00000
     17       7.7120      1.00000
     18       8.1696      1.00000
     19       9.0156      1.00000
     20       9.1408      1.00000
     21       9.3796      1.00000
     22       9.6658      1.00000
     23      10.2295      1.00000
     24      10.6799      1.00000
     25      10.9133      0.77192
     26      11.3253      0.00000
     27      11.8695      0.00000
     28      11.8824      0.00000

 k-point   118 :      -0.3333    0.4000    0.2000
  band No.  band energies     occupation 
      1     -44.0859      1.00000
      2     -44.0846      1.00000
      3     -44.0843      1.00000
      4     -37.1496      1.00000
      5     -37.1465      1.00000
      6     -37.0952      1.00000
      7     -37.0850      1.00000
      8     -37.0377      1.00000
      9     -37.0355      1.00000
     10      -1.5158      1.00000
     11       4.0829      1.00000
     12       4.5507      1.00000
     13       5.4516      1.00000
     14       6.8593      1.00000
     15       7.5166      1.00000
     16       7.5967      1.00000
     17       7.7829      1.00000
     18       8.1802      1.00000
     19       9.1090      1.00000
     20       9.1619      1.00000
     21       9.2438      1.00000
     22       9.7011      1.00000
     23      10.2377      1.00000
     24      10.5102      1.00000
     25      10.7300      1.00000
     26      11.3741      0.00000
     27      11.8160      0.00000
     28      11.8693      0.00000

 k-point   119 :      -0.3333    0.4667    0.2000
  band No.  band energies     occupation 
      1     -44.0860      1.00000
      2     -44.0849      1.00000
      3     -44.0840      1.00000
      4     -37.1537      1.00000
      5     -37.1477      1.00000
      6     -37.1058      1.00000
      7     -37.0741      1.00000
      8     -37.0351      1.00000
      9     -37.0332      1.00000
     10      -1.4906      1.00000
     11       4.0413      1.00000
     12       4.7522      1.00000
     13       5.4240      1.00000
     14       6.8262      1.00000
     15       7.5373      1.00000
     16       7.6206      1.00000
     17       7.6235      1.00000
     18       8.1087      1.00000
     19       9.0151      1.00000
     20       9.0608      1.00000
     21       9.2731      1.00000
     22       9.8690      1.00000
     23      10.3100      1.00000
     24      10.4917      1.00000
     25      10.5579      1.00000
     26      11.4026      0.00000
     27      11.7545      0.00000
     28      11.8135      0.00000

 k-point   120 :      -0.2667    0.4667    0.2000
  band No.  band energies     occupation 
      1     -44.0860      1.00000
      2     -44.0846      1.00000
      3     -44.0843      1.00000
      4     -37.1530      1.00000
      5     -37.1484      1.00000
      6     -37.0956      1.00000
      7     -37.0845      1.00000
      8     -37.0352      1.00000
      9     -37.0332      1.00000
     10      -1.4809      1.00000
     11       4.2926      1.00000
     12       4.4346      1.00000
     13       5.3854      1.00000
     14       6.8179      1.00000
     15       7.5578      1.00000
     16       7.6247      1.00000
     17       7.6692      1.00000
     18       8.1326      1.00000
     19       9.1149      1.00000
     20       9.1229      1.00000
     21       9.1904      1.00000
     22       9.8489      1.00000
     23      10.2976      1.00000
     24      10.4244      1.00000
     25      10.5358      1.00000
     26      11.4238      0.00000
     27      11.7798      0.00000
     28      11.8015      0.00000


--------------------------------------------------------------------------------------------------------


 soft charge-density along one line, spin component           1
         0         1         2         3         4         5         6         7         8         9
 total charge-density along one line
 
 soft charge-density along one line, spin component           2
         0         1         2         3         4         5         6         7         8         9
 total charge-density along one line
 
 pseudopotential strength for first ion, spin component:           1
-39.264   0.000   0.000   6.435  -0.000  -0.000  -0.000  -0.000
  0.000 -39.264   0.000  -0.000   6.435  -0.000  -0.002  -0.000
  0.000   0.000 -39.264  -0.000  -0.000   6.435  -0.000  -0.002
  6.435  -0.000  -0.000   5.551   0.000   0.000   0.000   0.000
 -0.000   6.435  -0.000   0.000   5.551   0.000  -0.001   0.000
 -0.000  -0.000   6.435   0.000   0.000   5.551   0.000  -0.001
 -0.000  -0.002  -0.000   0.000  -0.001   0.000  -0.270   0.000
 -0.000  -0.000  -0.002   0.000   0.000  -0.001   0.000  -0.270
 -0.000   0.000  -0.000   0.000  -0.000   0.000  -0.000   0.000
 -0.002  -0.000  -0.000  -0.001   0.000   0.000   0.000   0.000
 -0.000  -0.000   0.000   0.000   0.000  -0.000   0.000  -0.000
 -0.000  -0.002  -0.000   0.000  -0.001   0.000  -0.799   0.000
 -0.000  -0.000  -0.002   0.000   0.000  -0.001   0.000  -0.799
 -0.000   0.000  -0.000   0.000  -0.000   0.000  -0.000   0.000
 -0.002  -0.000  -0.000  -0.001   0.000   0.000   0.000   0.000
 -0.000  -0.000   0.000   0.000   0.000  -0.000   0.000  -0.000
  0.000   0.000   0.000   0.000   0.000   0.000  -0.000  -0.000
  0.000   0.000   0.000   0.000   0.000   0.000  -0.000  -0.000
 pseudopotential strength for first ion, spin component:           2
-39.471   0.000   0.000   6.531  -0.000  -0.000  -0.000  -0.000
  0.000 -39.471   0.000  -0.000   6.531  -0.000  -0.014  -0.000
  0.000   0.000 -39.471  -0.000  -0.000   6.531  -0.000  -0.014
  6.531  -0.000  -0.000   5.520   0.000   0.000   0.000   0.000
 -0.000   6.531  -0.000   0.000   5.520   0.000   0.006   0.000
 -0.000  -0.000   6.531   0.000   0.000   5.520   0.000   0.006
 -0.000  -0.014  -0.000   0.000   0.006   0.000  -0.391   0.000
 -0.000  -0.000  -0.014   0.000   0.000   0.006   0.000  -0.391
 -0.000   0.000  -0.000   0.000  -0.000   0.000  -0.000   0.000
 -0.014  -0.000  -0.000   0.006   0.000   0.000   0.000   0.000
 -0.000  -0.000   0.000   0.000   0.000  -0.000   0.000  -0.000
 -0.000  -0.014  -0.000   0.000   0.005   0.000  -0.918   0.000
 -0.000  -0.000  -0.014   0.000   0.000   0.005   0.000  -0.918
 -0.000   0.000  -0.000   0.000  -0.000   0.000  -0.000   0.000
 -0.014  -0.000  -0.000   0.005   0.000   0.000   0.000   0.000
 -0.000  -0.000   0.000   0.000   0.000  -0.000   0.000  -0.000
  0.000   0.000   0.000   0.000   0.000   0.000  -0.000  -0.000
  0.000   0.000   0.000   0.000   0.000   0.000  -0.000  -0.000
 total augmentation occupancy for first ion, spin component:           1
  1.992   0.000  -0.000  -0.027   0.000   0.000  -0.000  -0.000   0.000   0.001   0.000   0.000   0.000  -0.000  -0.001  -0.000
  0.000   1.992  -0.000  -0.000  -0.027   0.000   0.001  -0.000  -0.000  -0.000   0.000  -0.001   0.000   0.000   0.000   0.000
 -0.000  -0.000   1.992   0.000   0.000  -0.027  -0.000   0.001   0.000  -0.000  -0.000   0.000  -0.001  -0.000   0.000   0.000
 -0.027   0.000   0.000   0.188  -0.000   0.000   0.000   0.000  -0.000   0.110  -0.000   0.000   0.000   0.000  -0.064   0.000
 -0.000  -0.027   0.000  -0.000   0.188  -0.000   0.110  -0.000   0.000   0.000  -0.000  -0.064   0.000  -0.000   0.000   0.000
 -0.000  -0.000  -0.027  -0.000   0.000   0.188   0.000   0.110  -0.000  -0.000   0.000   0.000  -0.064   0.000   0.000  -0.000
 -0.000   0.001  -0.000   0.000   0.110   0.000   2.002   0.000   0.000   0.000   0.000  -1.630  -0.000  -0.000  -0.000   0.000
 -0.000  -0.000   0.001  -0.000  -0.000   0.110   0.000   2.002   0.000   0.000  -0.000  -0.000  -1.630   0.000  -0.000   0.000
  0.000  -0.000   0.000  -0.000   0.000  -0.000   0.000   0.000   1.144  -0.000   0.000  -0.000   0.000  -1.030   0.000   0.000
  0.001   0.000  -0.000   0.110   0.000  -0.000   0.000   0.000  -0.000   2.002  -0.000  -0.000  -0.000   0.000  -1.630   0.000
  0.000  -0.000  -0.000  -0.000   0.000   0.000  -0.000  -0.000   0.000   0.000   1.144   0.000   0.000   0.000   0.000  -1.030
  0.000  -0.001  -0.000   0.000  -0.064   0.000  -1.630  -0.000  -0.000  -0.000  -0.000   2.527   0.000   0.000   0.000   0.000
  0.000   0.000  -0.001   0.000   0.000  -0.064  -0.000  -1.630   0.000  -0.000   0.000   0.000   2.527  -0.000   0.000   0.000
 -0.000   0.000  -0.000   0.000  -0.000   0.000  -0.000   0.000  -1.030   0.000   0.000   0.000  -0.000   1.895  -0.000   0.000
 -0.001   0.000   0.000  -0.064   0.000   0.000  -0.000  -0.000   0.000  -1.630   0.000  -0.000   0.000  -0.000   2.527  -0.000
 -0.000   0.000   0.000   0.000  -0.000  -0.000   0.000   0.000   0.000   0.000  -1.030   0.000   0.000   0.000  -0.000   1.895
  0.000   0.000   0.000  -0.000  -0.000  -0.000   0.000   0.000  -0.000  -0.000   0.000   0.000   0.000   0.000  -0.000   0.000
  0.000   0.000   0.000   0.000   0.000   0.000  -0.000   0.000   0.000   0.000   0.000   0.000  -0.000  -0.000  -0.000   0.000
 total augmentation occupancy for first ion, spin component:           2
  0.000  -0.000   0.000   0.001   0.000  -0.000   0.000   0.000  -0.000  -0.006   0.000   0.000  -0.000  -0.000   0.006  -0.000
 -0.000   0.000   0.000   0.000   0.001   0.000  -0.006   0.000  -0.000   0.000  -0.000   0.006  -0.000   0.000  -0.000   0.000
  0.000   0.000   0.000   0.000  -0.000   0.001   0.000  -0.006   0.000   0.000  -0.000  -0.000   0.006  -0.000  -0.000   0.000
  0.001   0.000   0.000   0.005   0.000   0.000  -0.000  -0.000   0.000   0.031  -0.000   0.000   0.000   0.000  -0.008   0.000
  0.000   0.001  -0.000   0.000   0.005  -0.000   0.031  -0.000   0.000  -0.000   0.000  -0.008   0.000  -0.000   0.000   0.000
 -0.000   0.000   0.001  -0.000  -0.000   0.005  -0.000   0.031   0.000  -0.000   0.000   0.000  -0.008   0.000   0.000  -0.000
  0.000  -0.006   0.000  -0.000   0.031  -0.000  -0.192  -0.000   0.000  -0.000  -0.000   0.107   0.000  -0.000   0.000   0.000
  0.000   0.000  -0.006  -0.000  -0.000   0.031  -0.000  -0.192  -0.000  -0.000  -0.000   0.000   0.107   0.000   0.000   0.000
 -0.000  -0.000   0.000   0.000   0.000   0.000   0.000  -0.000  -0.343  -0.000   0.000  -0.000  -0.000   0.033   0.000   0.000
 -0.006   0.000   0.000   0.031  -0.000  -0.000  -0.000  -0.000  -0.000  -0.192   0.000   0.000   0.000   0.000   0.107   0.000
  0.000   0.000  -0.000  -0.000   0.000   0.000  -0.000   0.000   0.000   0.000  -0.343   0.000  -0.000   0.000   0.000   0.033
  0.000   0.006  -0.000   0.000  -0.008   0.000   0.107   0.000  -0.000   0.000   0.000  -0.026  -0.000   0.000  -0.000   0.000
 -0.000  -0.000   0.006   0.000   0.000  -0.008   0.000   0.107   0.000   0.000  -0.000  -0.000  -0.026  -0.000  -0.000   0.000
 -0.000   0.000  -0.000  -0.000  -0.000   0.000  -0.000  -0.000   0.033   0.000   0.000   0.000  -0.000   0.116  -0.000   0.000
  0.006  -0.000  -0.000  -0.008   0.000   0.000   0.000   0.000   0.000   0.107   0.000  -0.000  -0.000   0.000  -0.026   0.000
 -0.000  -0.000   0.000   0.000  -0.000  -0.000   0.000  -0.000   0.000   0.000   0.033   0.000   0.000   0.000   0.000   0.116
  0.000   0.000   0.000  -0.000  -0.000  -0.000  -0.000   0.000  -0.000   0.000   0.000   0.000  -0.000  -0.000  -0.000   0.000
 -0.000  -0.000  -0.000   0.000   0.000   0.000  -0.000   0.000   0.000   0.000   0.000   0.000  -0.000  -0.000   0.000   0.000


------------------------ aborting loop because EDIFF is reached ----------------------------------------


 


 total charge     
 
# of ion     s       p       d       tot
----------------------------------------
  1        0.309   6.328   5.328  11.965
  2        0.309   6.328   5.328  11.965
  3        0.376   6.385   6.108  12.870
  4        1.148   1.532   0.160   2.841
------------------------------------------------
tot        2.143  20.574  16.924  39.640
 


 magnetization (x)
 
# of ion     s       p       d       tot
----------------------------------------
  1        0.004   0.010  -0.265  -0.251
  2        0.004   0.010  -0.267  -0.253
  3       -0.013  -0.016  -2.348  -2.377
  4       -0.019  -0.024   0.005  -0.038
------------------------------------------------
tot       -0.024  -0.021  -2.874  -2.919
 
    CHARGE:  cpu time    0.5719: real time    0.5727
    FORLOC:  cpu time    0.0030: real time    0.0034
    FORNL :  cpu time    1.7147: real time    1.7193
    STRESS:  cpu time    4.5803: real time    4.5875
    FORCOR:  cpu time    0.0600: real time    0.0600
    FORHAR:  cpu time    0.0090: real time    0.0076
    MIXING:  cpu time    0.0020: real time    0.0027
    OFIELD:  cpu time    0.0000: real time    0.0000

  FORCE on cell =-STRESS in cart. coord.  units (eV):
  Direction    XX          YY          ZZ          XY          YZ          ZX
  --------------------------------------------------------------------------------------
  Alpha Z   313.80694   313.80694   313.80694
  Ewald   -1632.65261 -1632.65261 -1632.65261     0.00000     0.00000     0.00000
  Hartree   547.60737   547.60737   547.60737     0.00000     0.00000     0.00000
  E(xc)    -265.27970  -265.27970  -265.27970     0.00001     0.00001     0.00001
  Local     296.42891   296.42891   296.42891     0.00021     0.00021     0.00021
  n-local   -70.89222   -70.58104   -71.52582    -1.92692     1.59848    -1.63632
  augment   335.02809   335.02809   335.02808    -0.00018    -0.00019    -0.00019
  Kinetic   476.94040   477.54442   473.65921    -1.58331     1.69094    -1.65127
  Fock        0.00000     0.00000     0.00000     0.00000     0.00000     0.00000
  -------------------------------------------------------------------------------------
  Total      -0.01269    -0.01269    -0.01269     0.00000     0.00000     0.00000
  in kB      -0.43979    -0.43979    -0.43979     0.00000     0.00000     0.00000
  external pressure =       -0.44 kB  Pullay stress =        0.00 kB


 VOLUME and BASIS-vectors are now :
 -----------------------------------------------------------------------------
  energy-cutoff  :      500.00
  volume of cell :       46.25
      direct lattice vectors                 reciprocal lattice vectors
     0.000000000  2.848926150  2.848926150    -0.175504725  0.175504725  0.175504725
     2.848926150  0.000000000  2.848926150     0.175504725 -0.175504725  0.175504725
     2.848926150  2.848926150  0.000000000     0.175504725  0.175504725 -0.175504725

  length of vectors
     4.028989999  4.028989999  4.028989999     0.303983100  0.303983100  0.303983100


 FORCES acting on ions
    electron-ion (+dipol)            ewald-force                    non-local-force                 convergence-correction
 -----------------------------------------------------------------------------------------------
   0.444E-06 0.444E-06 0.518E-06   -.543E-13 -.580E-13 -.586E-13   0.971E-16 0.111E-15 0.104E-15   -.583E-08 -.583E-08 -.583E-08
   -.444E-06 -.444E-06 -.518E-06   0.388E-13 0.737E-13 0.433E-13   0.139E-15 0.139E-15 0.146E-15   -.405E-09 -.405E-09 -.405E-09
   -.387E-10 -.388E-10 -.392E-10   0.870E-14 -.117E-13 0.908E-14   0.678E-20 -.339E-20 0.339E-20   -.120E-08 -.120E-08 -.120E-08
   0.204E-11 0.828E-12 -.526E-12   0.552E-14 -.433E-14 0.388E-14   -.212E-20 -.127E-20 -.741E-21   0.650E-10 0.650E-10 0.650E-10
 -----------------------------------------------------------------------------------------------
   -.932E-11 -.213E-10 -.127E-10   -.137E-14 -.352E-15 -.229E-14   0.236E-15 0.250E-15 0.250E-15   -.736E-08 -.736E-08 -.736E-08
 
 
 POSITION                                       TOTAL-FORCE (eV/Angst)
 -----------------------------------------------------------------------------------
      4.27339      4.27339      4.27339        -0.000000      0.000000      0.000000
      1.42446      1.42446      1.42446         0.000000     -0.000000     -0.000000
      0.00000      0.00000      0.00000        -0.000000     -0.000000     -0.000000
      2.84893      2.84893      2.84893        -0.000000     -0.000000     -0.000000
 -----------------------------------------------------------------------------------
    total drift:                               -0.000000     -0.000000     -0.000000


--------------------------------------------------------------------------------------------------------



  FREE ENERGIE OF THE ION-ELECTRON SYSTEM (eV)
  ---------------------------------------------------
  free  energy   TOTEN  =       -30.78573041 eV

  energy  without entropy=      -30.77984691  energy(sigma->0) =      -30.78278866
 


--------------------------------------------------------------------------------------------------------


    POTLOK:  cpu time    0.2270: real time    0.2268


--------------------------------------------------------------------------------------------------------


     LOOP+:  cpu time  210.8769: real time  211.2756
    4ORBIT:  cpu time    0.0000: real time    0.0000
 


 total charge     
 
# of ion     s       p       d       tot
----------------------------------------
  1        0.309   6.328   5.328  11.965
  2        0.309   6.328   5.328  11.965
  3        0.376   6.385   6.108  12.870
  4        1.148   1.532   0.160   2.841
------------------------------------------------
tot        2.143  20.574  16.924  39.640
 


 magnetization (x)
 
# of ion     s       p       d       tot
----------------------------------------
  1        0.004   0.010  -0.265  -0.251
  2        0.004   0.010  -0.267  -0.253
  3       -0.013  -0.016  -2.348  -2.377
  4       -0.019  -0.024   0.005  -0.038
------------------------------------------------
tot       -0.024  -0.021  -2.874  -2.919
 

 total amount of memory used by VASP on root node   142625. kBytes
========================================================================

   base      :      30000. kBytes
   nonl-proj :      62907. kBytes
   fftplans  :       8118. kBytes
   grid      :       7070. kBytes
   one-center:        124. kBytes
   wavefun   :      34406. kBytes
 
  
  
 General timing and accounting informations for this job:
 ========================================================
  
                  Total CPU time used (sec):      213.141
                            User time (sec):      210.235
                          System time (sec):        2.906
                         Elapsed time (sec):      213.937
  
                   Maximum memory used (kb):      280824.
                   Average memory used (kb):           0.
  
                          Minor page faults:       165944
                          Major page faults:       782343
                 Voluntary context switches:         1158
