 vasp.5.4.1 05Feb16 (build Aug 30 2019 09:58:18) complex                        
  
 executed on           IFC91_ompi date 2021.10.04  00:10:22
 running on    4 total cores
 distrk:  each k-point on    4 cores,    1 groups
 distr:  one band on NCORES_PER_BAND=   1 cores,    4 groups


--------------------------------------------------------------------------------------------------------


 INCAR:
 POTCAR:    PAW_PBE Mn_pv 02Aug2007               
 POTCAR:    PAW_PBE Fe_pv 02Aug2007               
 POTCAR:    PAW_PBE As 22Sep2009                  
 POTCAR:    PAW_PBE Mn_pv 02Aug2007               
   VRHFIN =Mn: 3p4s3d                                                           
   LEXCH  = PE                                                                  
   EATOM  =  2025.2664 eV,  148.8529 Ry                                         
                                                                                
   TITEL  = PAW_PBE Mn_pv 02Aug2007                                             
   LULTRA =        F    use ultrasoft PP ?                                      
   IUNSCR =        1    unscreen: 0-lin 1-nonlin 2-no                           
   RPACOR =    2.080    partial core radius                                     
   POMASS =   54.938; ZVAL   =   13.000    mass and valenz                      
   RCORE  =    2.300    outmost cutoff radius                                   
   RWIGS  =    2.500; RWIGS  =    1.323    wigner-seitz radius (au A)           
   ENMAX  =  269.864; ENMIN  =  202.398 eV                                      
   ICORE  =        3    local potential                                         
   LCOR   =        T    correct aug charges                                     
   LPAW   =        T    paw PP                                                  
   EAUG   =  569.085                                                            
   DEXC   =    0.000                                                            
   RMAX   =    2.343    core radius for proj-oper                               
   RAUG   =    1.300    factor for augmentation sphere                          
   RDEP   =    2.338    radius for radial grids                                 
   RDEPT  =    1.798    core radius for aug-charge                              
                                                                                
   Atomic configuration                                                         
    8 entries                                                                   
     n  l   j            E        occ.                                          
     1  0  0.50     -6424.8287   2.0000                                         
     2  0  0.50      -739.1154   2.0000                                         
     2  1  1.50      -625.3949   6.0000                                         
     3  0  0.50       -81.6100   2.0000                                         
     3  1  1.50       -50.4667   6.0000                                         
     3  2  2.50        -3.3745   6.0000                                         
     4  0  0.50        -4.1331   1.0000                                         
     4  3  2.50        -1.3606   0.0000                                         
   Description                                                                  
     l       E           TYP  RCUT    TYP  RCUT                                 
     1    -50.4666628     23  2.000                                             
     1     -1.3605826     23  2.000                                             
     2     -3.3744729     23  2.300                                             
     2     -4.7350555     23  2.300                                             
     0     -4.1331431     23  2.300                                             
     0      7.6656591     23  2.300                                             
     3      9.5240782     23  2.300                                             
  local pseudopotential read in
  partial core-charges read in
  partial kinetic energy density read in
  atomic valenz-charges read in
  non local Contribution for L=           1  read in
    real space projection operators read in
  non local Contribution for L=           1  read in
    real space projection operators read in
  non local Contribution for L=           2  read in
    real space projection operators read in
  non local Contribution for L=           2  read in
    real space projection operators read in
  non local Contribution for L=           0  read in
    real space projection operators read in
  non local Contribution for L=           0  read in
    real space projection operators read in
    PAW grid and wavefunctions read in
 
   number of l-projection  operators is LMAX  =           6
   number of lm-projection operators is LMMAX =          18
 
 POTCAR:    PAW_PBE Fe_pv 02Aug2007               
   VRHFIN =Fe:  3pd7s1                                                          
   LEXCH  = PE                                                                  
   EATOM  =  2457.4239 eV,  180.6156 Ry                                         
                                                                                
   TITEL  = PAW_PBE Fe_pv 02Aug2007                                             
   LULTRA =        F    use ultrasoft PP ?                                      
   IUNSCR =        1    unscreen: 0-lin 1-nonlin 2-no                           
   RPACOR =    1.750    partial core radius                                     
   POMASS =   55.847; ZVAL   =   14.000    mass and valenz                      
   RCORE  =    2.200    outmost cutoff radius                                   
   RWIGS  =    2.200; RWIGS  =    1.164    wigner-seitz radius (au A)           
   ENMAX  =  293.238; ENMIN  =  219.928 eV                                      
   ICORE  =        3    local potential                                         
   LCOR   =        T    correct aug charges                                     
   LPAW   =        T    paw PP                                                  
   EAUG   =  578.342                                                            
   DEXC   =    0.000                                                            
   RMAX   =    2.249    core radius for proj-oper                               
   RAUG   =    1.300    factor for augmentation sphere                          
   RDEP   =    2.296    radius for radial grids                                 
   RDEPT  =    1.766    core radius for aug-charge                              
                                                                                
   Atomic configuration                                                         
    8 entries                                                                   
     n  l   j            E        occ.                                          
     1  0  0.50     -6993.8440   2.0000                                         
     2  0  0.50      -814.6047   2.0000                                         
     2  1  1.50      -693.3689   6.0000                                         
     3  0  0.50       -89.4732   2.0000                                         
     3  1  1.50       -55.6373   6.0000                                         
     3  2  2.50        -3.8151   7.0000                                         
     4  0  0.50        -4.2551   1.0000                                         
     4  3  2.50        -1.3606   0.0000                                         
   Description                                                                  
     l       E           TYP  RCUT    TYP  RCUT                                 
     1    -55.6372668     23  2.000                                             
     1     -5.4423304     23  2.000                                             
     2     -3.8151096     23  2.200                                             
     2     -5.1756922     23  2.200                                             
     0     -4.2550951     23  2.200                                             
     0     27.2116520     23  2.200                                             
     3     -1.3605826     23  2.200                                             
  local pseudopotential read in
  partial core-charges read in
  partial kinetic energy density read in
  atomic valenz-charges read in
  non local Contribution for L=           1  read in
    real space projection operators read in
  non local Contribution for L=           1  read in
    real space projection operators read in
  non local Contribution for L=           2  read in
    real space projection operators read in
  non local Contribution for L=           2  read in
    real space projection operators read in
  non local Contribution for L=           0  read in
    real space projection operators read in
  non local Contribution for L=           0  read in
    real space projection operators read in
    PAW grid and wavefunctions read in
 
   number of l-projection  operators is LMAX  =           6
   number of lm-projection operators is LMMAX =          18
 
 POTCAR:    PAW_PBE As 22Sep2009                  
   VRHFIN =As: s2p3                                                             
   LEXCH  = PE                                                                  
   EATOM  =   170.1867 eV,   12.5084 Ry                                         
                                                                                
   TITEL  = PAW_PBE As 22Sep2009                                                
   LULTRA =        F    use ultrasoft PP ?                                      
   IUNSCR =        1    unscreen: 0-lin 1-nonlin 2-no                           
   RPACOR =    1.900    partial core radius                                     
   POMASS =   74.922; ZVAL   =    5.000    mass and valenz                      
   RCORE  =    2.100    outmost cutoff radius                                   
   RWIGS  =    2.300; RWIGS  =    1.217    wigner-seitz radius (au A)           
   ENMAX  =  208.702; ENMIN  =  156.526 eV                                      
   ICORE  =        3    local potential                                         
   LCOR   =        T    correct aug charges                                     
   LPAW   =        T    paw PP                                                  
   EAUG   =  462.758                                                            
   DEXC   =    0.000                                                            
   RMAX   =    2.144    core radius for proj-oper                               
   RAUG   =    1.300    factor for augmentation sphere                          
   RDEP   =    2.140    radius for radial grids                                 
   RDEPT  =    1.956    core radius for aug-charge                              
                                                                                
   Atomic configuration                                                         
   10 entries                                                                   
     n  l   j            E        occ.                                          
     1  0  0.50    -11718.0418   2.0000                                         
     2  0  0.50     -1486.5454   2.0000                                         
     2  1  1.50     -1303.3889   6.0000                                         
     3  0  0.50      -190.2849   2.0000                                         
     3  1  1.50      -133.6555   6.0000                                         
     3  2  2.50       -40.6443  10.0000                                         
     4  0  0.50       -14.4936   2.0000                                         
     4  1  0.50        -5.1947   3.0000                                         
     4  2  1.50        -5.4423   0.0000                                         
     4  3  2.50        -5.4423   0.0000                                         
   Description                                                                  
     l       E           TYP  RCUT    TYP  RCUT                                 
     0    -14.4935570     23  2.100                                             
     0    -11.9212055     23  2.100                                             
     1     -5.1947127     23  2.100                                             
     1     27.2116520     23  2.100                                             
     2     -5.4423304     23  2.100                                             
     3     -1.3605826      7  2.100                                             
  local pseudopotential read in
  partial core-charges read in
  partial kinetic energy density read in
  atomic valenz-charges read in
  non local Contribution for L=           0  read in
    real space projection operators read in
  non local Contribution for L=           0  read in
    real space projection operators read in
  non local Contribution for L=           1  read in
    real space projection operators read in
  non local Contribution for L=           1  read in
    real space projection operators read in
  non local Contribution for L=           2  read in
    real space projection operators read in
    PAW grid and wavefunctions read in
 
   number of l-projection  operators is LMAX  =           5
   number of lm-projection operators is LMMAX =          13
 
  PAW_PBE Mn_pv 02Aug2007               :
 energy of atom  1       EATOM=-2025.2664
 kinetic energy error for atom=    0.0062 (will be added to EATOM!!)
  PAW_PBE Fe_pv 02Aug2007               :
 energy of atom  2       EATOM=-2457.4239
 kinetic energy error for atom=    0.0069 (will be added to EATOM!!)
  PAW_PBE As 22Sep2009                  :
 energy of atom  3       EATOM= -170.1867
 kinetic energy error for atom=    0.0005 (will be added to EATOM!!)
 
 
 POSCAR: Mn Fe As                                
  positions in direct lattice
  velocities in cartesian coordinates
 exchange correlation table for  LEXCH =        8
   RHO(1)=    0.500       N(1)  =     2000
   RHO(2)=  100.500       N(2)  =     4000
 


--------------------------------------------------------------------------------------------------------


 ion  position               nearest neighbor table
   1  0.000  0.000  0.000-   3 2.47   3 2.47   3 2.47   2 2.47   3 2.47   2 2.47   2 2.47   2 2.47
                             4 2.86   4 2.86   4 2.86   4 2.86   4 2.86   4 2.86
   2  0.250  0.250  0.250-   1 2.47   1 2.47   1 2.47   1 2.47   4 2.47   4 2.47   4 2.47   4 2.47
                             3 2.86   3 2.86   3 2.86   3 2.86   3 2.86   3 2.86
   3  0.750  0.750  0.750-   4 2.47   4 2.47   4 2.47   1 2.47   4 2.47   1 2.47   1 2.47   1 2.47
                             2 2.86   2 2.86   2 2.86   2 2.86   2 2.86   2 2.86
   4  0.500  0.500  0.500-   2 2.47   2 2.47   2 2.47   2 2.47   3 2.47   3 2.47   3 2.47   3 2.47
                             1 2.86   1 2.86   1 2.86   1 2.86   1 2.86   1 2.86
 
  LATTYP: Found a face centered cubic cell.
 ALAT       =     5.7156918263
  
  Lattice vectors:
  
 A1 = (   0.0000000000,   2.8578459131,   2.8578459131)
 A2 = (   2.8578459131,   0.0000000000,   2.8578459131)
 A3 = (   2.8578459131,   2.8578459131,   0.0000000000)


Analysis of symmetry for initial positions (statically):
=====================================================================
 Subroutine PRICEL returns:
 Original cell was already a primitive cell.
 

 Routine SETGRP: Setting up the symmetry group for a 
 face centered cubic supercell.


 Subroutine GETGRP returns: Found 24 space group operations
 (whereof 24 operations were pure point group operations)
 out of a pool of 48 trial point group operations.


The static configuration has the point symmetry T_d .


Analysis of symmetry for dynamics (positions and initial velocities):
=====================================================================
 Subroutine PRICEL returns:
 Original cell was already a primitive cell.
 

 Routine SETGRP: Setting up the symmetry group for a 
 face centered cubic supercell.


 Subroutine GETGRP returns: Found 24 space group operations
 (whereof 24 operations were pure point group operations)
 out of a pool of 48 trial point group operations.


The dynamic configuration has the point symmetry T_d .


Analysis of structural, dynamic, and magnetic symmetry:
=====================================================================
 Subroutine PRICEL returns:
 Original cell was already a primitive cell.
 

 Routine SETGRP: Setting up the symmetry group for a 
 face centered cubic supercell.


 Subroutine GETGRP returns: Found 24 space group operations
 (whereof 24 operations were pure point group operations)
 out of a pool of 48 trial point group operations.


The magnetic configuration has the point symmetry T_d .


 Subroutine INISYM returns: Found 24 space group operations
 (whereof 24 operations are pure point group operations),
 and found     1 'primitive' translations

 
 
 KPOINTS: Automatic Mesh # Generates Automatically

Automatic generation of k-mesh.
Space group operators:
 irot       det(A)        alpha          n_x          n_y          n_z        tau_x        tau_y        tau_z
    1     1.000000     0.000001     1.000000     0.000000     0.000000     0.000000     0.000000     0.000000
    2     1.000000   120.000000    -0.577350    -0.577350    -0.577350     0.000000     0.000000     0.000000
    3     1.000000   120.000000     0.577350     0.577350     0.577350     0.000000     0.000000     0.000000
    4    -1.000000    90.000000     0.000000     0.000000    -1.000000     0.000000     0.000000     0.000000
    5    -1.000000   180.000000     0.000000     0.707107     0.707107     0.000000     0.000000     0.000000
    6    -1.000000    90.000000     0.000000     1.000000     0.000000     0.000000     0.000000     0.000000
    7     1.000000   180.000000     0.000000     0.000000     1.000000     0.000000     0.000000     0.000000
    8     1.000000   120.000000    -0.577350     0.577350     0.577350     0.000000     0.000000     0.000000
    9     1.000000   120.000000    -0.577350     0.577350    -0.577350     0.000000     0.000000     0.000000
   10    -1.000000    90.000000     0.000000     0.000000     1.000000     0.000000     0.000000     0.000000
   11    -1.000000    90.000000    -1.000000     0.000000     0.000000     0.000000     0.000000     0.000000
   12    -1.000000   180.000000     0.707107     0.000000     0.707107     0.000000     0.000000     0.000000
   13     1.000000   120.000000     0.577350    -0.577350     0.577350     0.000000     0.000000     0.000000
   14     1.000000   120.000000    -0.577350    -0.577350     0.577350     0.000000     0.000000     0.000000
   15     1.000000   180.000000     1.000000     0.000000     0.000000     0.000000     0.000000     0.000000
   16    -1.000000    90.000000     0.000000    -1.000000     0.000000     0.000000     0.000000     0.000000
   17    -1.000000   180.000000     0.707107     0.707107     0.000000     0.000000     0.000000     0.000000
   18    -1.000000    90.000000     1.000000     0.000000     0.000000     0.000000     0.000000     0.000000
   19     1.000000   120.000000     0.577350    -0.577350    -0.577350     0.000000     0.000000     0.000000
   20     1.000000   180.000000     0.000000     1.000000     0.000000     0.000000     0.000000     0.000000
   21     1.000000   120.000000     0.577350     0.577350    -0.577350     0.000000     0.000000     0.000000
   22    -1.000000   180.000000     0.000000    -0.707107     0.707107     0.000000     0.000000     0.000000
   23    -1.000000   180.000000     0.707107    -0.707107     0.000000     0.000000     0.000000     0.000000
   24    -1.000000   180.000000     0.707107     0.000000    -0.707107     0.000000     0.000000     0.000000
 
 Subroutine IBZKPT returns following result:
 ===========================================
 
 Found    120 irreducible k-points:
 
 Following reciprocal coordinates:
            Coordinates               Weight
  0.000000  0.000000  0.000000      1.000000
  0.066667  0.000000  0.000000      8.000000
  0.133333  0.000000  0.000000      8.000000
  0.200000  0.000000  0.000000      8.000000
  0.266667  0.000000  0.000000      8.000000
  0.333333  0.000000  0.000000      8.000000
  0.400000  0.000000  0.000000      8.000000
  0.466667  0.000000  0.000000      8.000000
  0.066667  0.066667  0.000000      6.000000
  0.133333  0.066667  0.000000     24.000000
  0.200000  0.066667  0.000000     24.000000
  0.266667  0.066667  0.000000     24.000000
  0.333333  0.066667  0.000000     24.000000
  0.400000  0.066667  0.000000     24.000000
  0.466667  0.066667  0.000000     24.000000
 -0.466667  0.066667  0.000000     24.000000
 -0.400000  0.066667  0.000000     24.000000
 -0.333333  0.066667  0.000000     24.000000
 -0.266667  0.066667  0.000000     24.000000
 -0.200000  0.066667  0.000000     24.000000
 -0.133333  0.066667  0.000000     24.000000
 -0.066667  0.066667  0.000000     12.000000
  0.133333  0.133333  0.000000      6.000000
  0.200000  0.133333  0.000000     24.000000
  0.266667  0.133333  0.000000     24.000000
  0.333333  0.133333  0.000000     24.000000
  0.400000  0.133333  0.000000     24.000000
  0.466667  0.133333  0.000000     24.000000
 -0.466667  0.133333  0.000000     24.000000
 -0.400000  0.133333  0.000000     24.000000
 -0.333333  0.133333  0.000000     24.000000
 -0.266667  0.133333  0.000000     24.000000
 -0.200000  0.133333  0.000000     24.000000
 -0.133333  0.133333  0.000000     12.000000
  0.200000  0.200000  0.000000      6.000000
  0.266667  0.200000  0.000000     24.000000
  0.333333  0.200000  0.000000     24.000000
  0.400000  0.200000  0.000000     24.000000
  0.466667  0.200000  0.000000     24.000000
 -0.466667  0.200000  0.000000     24.000000
 -0.400000  0.200000  0.000000     24.000000
 -0.333333  0.200000  0.000000     24.000000
 -0.266667  0.200000  0.000000     24.000000
 -0.200000  0.200000  0.000000     12.000000
  0.266667  0.266667  0.000000      6.000000
  0.333333  0.266667  0.000000     24.000000
  0.400000  0.266667  0.000000     24.000000
  0.466667  0.266667  0.000000     24.000000
 -0.466667  0.266667  0.000000     24.000000
 -0.400000  0.266667  0.000000     24.000000
 -0.333333  0.266667  0.000000     24.000000
 -0.266667  0.266667  0.000000     12.000000
  0.333333  0.333333  0.000000      6.000000
  0.400000  0.333333  0.000000     24.000000
  0.466667  0.333333  0.000000     24.000000
 -0.466667  0.333333  0.000000     24.000000
 -0.400000  0.333333  0.000000     24.000000
 -0.333333  0.333333  0.000000     12.000000
  0.400000  0.400000  0.000000      6.000000
  0.466667  0.400000  0.000000     24.000000
 -0.466667  0.400000  0.000000     24.000000
 -0.400000  0.400000  0.000000     12.000000
  0.466667  0.466667  0.000000      6.000000
 -0.466667  0.466667  0.000000     12.000000
  0.200000  0.133333  0.066667     24.000000
  0.266667  0.133333  0.066667     48.000000
  0.333333  0.133333  0.066667     48.000000
  0.400000  0.133333  0.066667     48.000000
  0.466667  0.133333  0.066667     48.000000
 -0.466667  0.133333  0.066667     48.000000
  0.266667  0.200000  0.066667     24.000000
  0.333333  0.200000  0.066667     48.000000
  0.400000  0.200000  0.066667     48.000000
  0.466667  0.200000  0.066667     48.000000
 -0.466667  0.200000  0.066667     48.000000
 -0.400000  0.200000  0.066667     48.000000
 -0.333333  0.200000  0.066667     48.000000
 -0.266667  0.200000  0.066667     48.000000
 -0.200000  0.200000  0.066667     48.000000
 -0.133333  0.200000  0.066667     24.000000
  0.333333  0.266667  0.066667     24.000000
  0.400000  0.266667  0.066667     48.000000
  0.466667  0.266667  0.066667     48.000000
 -0.466667  0.266667  0.066667     48.000000
 -0.400000  0.266667  0.066667     48.000000
 -0.333333  0.266667  0.066667     48.000000
 -0.266667  0.266667  0.066667     48.000000
 -0.200000  0.266667  0.066667     24.000000
  0.400000  0.333333  0.066667     24.000000
  0.466667  0.333333  0.066667     48.000000
 -0.466667  0.333333  0.066667     48.000000
 -0.400000  0.333333  0.066667     48.000000
 -0.333333  0.333333  0.066667     48.000000
 -0.266667  0.333333  0.066667     24.000000
  0.466667  0.400000  0.066667     24.000000
 -0.466667  0.400000  0.066667     48.000000
 -0.400000  0.400000  0.066667     48.000000
 -0.333333  0.400000  0.066667     24.000000
 -0.466667  0.466667  0.066667     24.000000
 -0.400000  0.466667  0.066667     24.000000
  0.400000  0.266667  0.133333     24.000000
  0.466667  0.266667  0.133333     48.000000
 -0.466667  0.266667  0.133333     48.000000
 -0.400000  0.266667  0.133333     48.000000
  0.466667  0.333333  0.133333     24.000000
 -0.466667  0.333333  0.133333     48.000000
 -0.400000  0.333333  0.133333     48.000000
 -0.333333  0.333333  0.133333     48.000000
 -0.266667  0.333333  0.133333     48.000000
 -0.200000  0.333333  0.133333     24.000000
 -0.466667  0.400000  0.133333     24.000000
 -0.400000  0.400000  0.133333     48.000000
 -0.333333  0.400000  0.133333     48.000000
 -0.266667  0.400000  0.133333     24.000000
 -0.400000  0.466667  0.133333     24.000000
 -0.333333  0.466667  0.133333     24.000000
 -0.400000  0.400000  0.200000     24.000000
 -0.333333  0.400000  0.200000     48.000000
 -0.333333  0.466667  0.200000     24.000000
 -0.266667  0.466667  0.200000     24.000000
 
 Following cartesian coordinates:
            Coordinates               Weight
  0.000000  0.000000  0.000000      1.000000
 -0.064151  0.064151  0.064151      8.000000
 -0.128302  0.128302  0.128302      8.000000
 -0.192453  0.192453  0.192453      8.000000
 -0.256604  0.256604  0.256604      8.000000
 -0.320754  0.320754  0.320754      8.000000
 -0.384905  0.384905  0.384905      8.000000
 -0.449056  0.449056  0.449056      8.000000
  0.000000  0.000000  0.128302      6.000000
 -0.064151  0.064151  0.192453     24.000000
 -0.128302  0.128302  0.256604     24.000000
 -0.192453  0.192453  0.320754     24.000000
 -0.256604  0.256604  0.384905     24.000000
 -0.320754  0.320754  0.449056     24.000000
 -0.384905  0.384905  0.513207     24.000000
  0.513207 -0.513207 -0.384905     24.000000
  0.449056 -0.449056 -0.320754     24.000000
  0.384905 -0.384905 -0.256604     24.000000
  0.320754 -0.320754 -0.192453     24.000000
  0.256604 -0.256604 -0.128302     24.000000
  0.192453 -0.192453 -0.064151     24.000000
  0.128302 -0.128302  0.000000     12.000000
  0.000000  0.000000  0.256604      6.000000
 -0.064151  0.064151  0.320754     24.000000
 -0.128302  0.128302  0.384905     24.000000
 -0.192453  0.192453  0.449056     24.000000
 -0.256604  0.256604  0.513207     24.000000
 -0.320754  0.320754  0.577358     24.000000
  0.577358 -0.577358 -0.320754     24.000000
  0.513207 -0.513207 -0.256604     24.000000
  0.449056 -0.449056 -0.192453     24.000000
  0.384905 -0.384905 -0.128302     24.000000
  0.320754 -0.320754 -0.064151     24.000000
  0.256604 -0.256604 -0.000000     12.000000
  0.000000  0.000000  0.384905      6.000000
 -0.064151  0.064151  0.449056     24.000000
 -0.128302  0.128302  0.513207     24.000000
 -0.192453  0.192453  0.577358     24.000000
 -0.256604  0.256604  0.641509     24.000000
  0.641509 -0.641509 -0.256604     24.000000
  0.577358 -0.577358 -0.192453     24.000000
  0.513207 -0.513207 -0.128302     24.000000
  0.449056 -0.449056 -0.064151     24.000000
  0.384905 -0.384905  0.000000     12.000000
  0.000000  0.000000  0.513207      6.000000
 -0.064151  0.064151  0.577358     24.000000
 -0.128302  0.128302  0.641509     24.000000
 -0.192453  0.192453  0.705660     24.000000
  0.705660 -0.705660 -0.192453     24.000000
  0.641509 -0.641509 -0.128302     24.000000
  0.577358 -0.577358 -0.064151     24.000000
  0.513207 -0.513207  0.000000     12.000000
  0.000000  0.000000  0.641509      6.000000
 -0.064151  0.064151  0.705660     24.000000
 -0.128302  0.128302  0.769811     24.000000
  0.769811 -0.769811 -0.128302     24.000000
  0.705660 -0.705660 -0.064151     24.000000
  0.641509 -0.641509  0.000000     12.000000
  0.000000  0.000000  0.769811      6.000000
 -0.064151  0.064151  0.833961     24.000000
  0.833961 -0.833961 -0.064151     24.000000
  0.769811 -0.769811  0.000000     12.000000
  0.000000  0.000000  0.898112      6.000000
  0.898112 -0.898112  0.000000     12.000000
  0.000000  0.128302  0.256604     24.000000
 -0.064151  0.192453  0.320754     48.000000
 -0.128302  0.256604  0.384905     48.000000
 -0.192453  0.320754  0.449056     48.000000
 -0.256604  0.384905  0.513207     48.000000
  0.641509 -0.513207 -0.384905     48.000000
 -0.000000  0.128302  0.384905     24.000000
 -0.064151  0.192453  0.449056     48.000000
 -0.128302  0.256604  0.513207     48.000000
 -0.192453  0.320754  0.577358     48.000000
  0.705660 -0.577358 -0.320754     48.000000
  0.641509 -0.513207 -0.256604     48.000000
  0.577358 -0.449056 -0.192453     48.000000
  0.513207 -0.384905 -0.128302     48.000000
  0.449056 -0.320754 -0.064151     48.000000
  0.384905 -0.256604  0.000000     24.000000
  0.000000  0.128302  0.513207     24.000000
 -0.064151  0.192453  0.577358     48.000000
 -0.128302  0.256604  0.641509     48.000000
  0.769811 -0.641509 -0.256604     48.000000
  0.705660 -0.577358 -0.192453     48.000000
  0.641509 -0.513207 -0.128302     48.000000
  0.577358 -0.449056 -0.064151     48.000000
  0.513207 -0.384905  0.000000     24.000000
 -0.000000  0.128302  0.641509     24.000000
 -0.064151  0.192453  0.705660     48.000000
  0.833961 -0.705660 -0.192453     48.000000
  0.769811 -0.641509 -0.128302     48.000000
  0.705660 -0.577358 -0.064151     48.000000
  0.641509 -0.513207 -0.000000     24.000000
  0.000000  0.128302  0.769811     24.000000
  0.898112 -0.769811 -0.128302     48.000000
  0.833961 -0.705660 -0.064151     48.000000
  0.769811 -0.641509  0.000000     24.000000
  0.962263 -0.833961 -0.064151     24.000000
  0.898112 -0.769811 -0.000000     24.000000
  0.000000  0.256604  0.513207     24.000000
 -0.064151  0.320754  0.577358     48.000000
  0.833961 -0.577358 -0.320754     48.000000
  0.769811 -0.513207 -0.256604     48.000000
  0.000000  0.256604  0.641509     24.000000
  0.898112 -0.641509 -0.256604     48.000000
  0.833961 -0.577358 -0.192453     48.000000
  0.769811 -0.513207 -0.128302     48.000000
  0.705660 -0.449056 -0.064151     48.000000
  0.641509 -0.384905 -0.000000     24.000000
  0.962263 -0.705660 -0.192453     24.000000
  0.898112 -0.641509 -0.128302     48.000000
  0.833961 -0.577358 -0.064151     48.000000
  0.769811 -0.513207  0.000000     24.000000
  0.962263 -0.705660 -0.064151     24.000000
  0.898112 -0.641509  0.000000     24.000000
  0.962263 -0.577358 -0.192453     24.000000
  0.898112 -0.513207 -0.128302     48.000000
  0.962263 -0.577358 -0.064151     24.000000
  0.898112 -0.513207  0.000000     24.000000
 


--------------------------------------------------------------------------------------------------------




 Dimension of arrays:
   k-points           NKPTS =    120   k-points in BZ     NKDIM =    120   number of bands    NBANDS=     28
   number of dos      NEDOS =   3000   number of ions     NIONS =      4
   non local maximal  LDIM  =      6   non local SUM 2l+1 LMDIM =     18
   total plane-waves  NPLWV =  27000
   max r-space proj   IRMAX =      1   max aug-charges    IRDMAX= 191644
   dimension x,y,z NGX =    30 NGY =   30 NGZ =   30
   dimension x,y,z NGXF=    60 NGYF=   60 NGZF=   60
   support grid    NGXF=   120 NGYF=  120 NGZF=  120
   ions per type =               2   1   1
 NGX,Y,Z   is equivalent  to a cutoff of  12.34, 12.34, 12.34 a.u.
 NGXF,Y,Z  is equivalent  to a cutoff of  24.68, 24.68, 24.68 a.u.


 I would recommend the setting:
   dimension x,y,z NGX =    29 NGY =   29 NGZ =   29
 SYSTEM =  OPT Job       	                         
 POSCAR =  Mn Fe As                                

 Startparameter for this run:
   NWRITE =      2    write-flag & timer
   PREC   = accura    normal or accurate (medium, high low for compatibility)
   ISTART =      0    job   : 0-new  1-cont  2-samecut
   ICHARG =      2    charge: 1-file 2-atom 10-const
   ISPIN  =      2    spin polarized calculation?
   LNONCOLLINEAR =      F non collinear calculations
   LSORBIT =      F    spin-orbit coupling
   INIWAV =      1    electr: 0-lowe 1-rand  2-diag
   LASPH  =      F    aspherical Exc in radial PAW
   METAGGA=      F    non-selfconsistent MetaGGA calc.

 Electronic Relaxation 1
   ENCUT  =  500.0 eV  36.75 Ry    6.06 a.u.   7.37  7.37  7.37*2*pi/ulx,y,z
   ENINI  =  500.0     initial cutoff
   ENAUG  =  578.3 eV  augmentation charge cutoff
   NELM   =    300;   NELMIN=  2; NELMDL= -6     # of ELM steps 
   EDIFF  = 0.1E-06   stopping-criterion for ELM
   LREAL  =      F    real-space projection
   NLSPLINE    = F    spline interpolate recip. space projectors
   LCOMPAT=      F    compatible to vasp.4.4
   GGA_COMPAT  = T    GGA compatible to vasp.4.4-vasp.4.6
   LMAXPAW     = -100 max onsite density
   LMAXMIX     =    2 max onsite mixed and CHGCAR
   VOSKOWN=      0    Vosko Wilk Nusair interpolation
   ROPT   =    0.00000   0.00000   0.00000
 Ionic relaxation
   EDIFFG = 0.1E-05   stopping-criterion for IOM
   NSW    =      0    number of steps for IOM
   NBLOCK =      1;   KBLOCK =      1    inner block; outer block 
   IBRION =     -1    ionic relax: 0-MD 1-quasi-New 2-CG
   NFREE  =      0    steps in history (QN), initial steepest desc. (CG)
   ISIF   =      3    stress and relaxation
   IWAVPR =     10    prediction:  0-non 1-charg 2-wave 3-comb
   ISYM   =      2    0-nonsym 1-usesym 2-fastsym
   LCORR  =      T    Harris-Foulkes like correction to forces

   POTIM  = 0.1000    time-step for ionic-motion
   TEIN   =    0.0    initial temperature
   TEBEG  =    0.0;   TEEND  =   0.0 temperature during run
   SMASS  =  -3.00    Nose mass-parameter (am)
   estimated Nose-frequenzy (Omega)   =  0.10E-29 period in steps =****** mass=  -0.373E-27a.u.
   SCALEE = 1.0000    scale energy and forces
   NPACO  =    256;   APACO  = 16.0  distance and # of slots for P.C.
   PSTRESS=    0.0 pullay stress

  Mass of Ions in am
   POMASS =  54.94 55.85 74.92
  Ionic Valenz
   ZVAL   =  13.00 14.00  5.00
  Atomic Wigner-Seitz radii
   RWIGS  =  -1.00 -1.00 -1.00
  virtual crystal weights 
   VCA    =   1.00  1.00  1.00
   NELECT =      45.0000    total number of electrons
   NUPDOWN=      -1.0000    fix difference up-down

 DOS related values:
   EMIN   =  10.00;   EMAX   =-10.00  energy-range for DOS
   EFERMI =   0.00
   ISMEAR =     0;   SIGMA  =   0.05  broadening in eV -4-tet -1-fermi 0-gaus

 Electronic relaxation 2 (details)
   IALGO  =     68    algorithm
   LDIAG  =      T    sub-space diagonalisation (order eigenvalues)
   LSUBROT=      F    optimize rotation matrix (better conditioning)
   TURBO    =      0    0=normal 1=particle mesh
   IRESTART =      0    0=no restart 2=restart with 2 vectors
   NREBOOT  =      0    no. of reboots
   NMIN     =      0    reboot dimension
   EREF     =   0.00    reference energy to select bands
   IMIX   =      4    mixing-type and parameters
     AMIX     =   0.40;   BMIX     =  1.00
     AMIX_MAG =   1.60;   BMIX_MAG =  1.00
     AMIN     =   0.10
     WC   =   100.;   INIMIX=   1;  MIXPRE=   1;  MAXMIX= -45

 Intra band minimization:
   WEIMIN = 0.0000     energy-eigenvalue tresh-hold
   EBREAK =  0.89E-09  absolut break condition
   DEPER  =   0.30     relativ break condition  

   TIME   =   0.40     timestep for ELM

  volume/ion in A,a.u.               =      11.67        78.76
  Fermi-wavevector in a.u.,A,eV,Ry     =   1.617199  3.056063 35.583771  2.615333
  Thomas-Fermi vector in A             =   2.711663
 
 Write flags
   LWAVE  =      F    write WAVECAR
   LCHARG =      T    write CHGCAR
   LVTOT  =      F    write LOCPOT, total local potential
   LVHAR  =      F    write LOCPOT, Hartree potential only
   LELF   =      F    write electronic localiz. function (ELF)
   LORBIT =     11    0 simple, 1 ext, 2 COOP (PROOUT)


 Dipole corrections
   LMONO  =      F    monopole corrections only (constant potential shift)
   LDIPOL =      F    correct potential (dipole corrections)
   IDIPOL =      0    1-x, 2-y, 3-z, 4-all directions 
   EPSILON=  1.0000000 bulk dielectric constant

 Exchange correlation treatment:
   GGA     =    --    GGA type
   LEXCH   =     8    internal setting for exchange type
   VOSKOWN=      0    Vosko Wilk Nusair interpolation
   LHFCALC =     F    Hartree Fock is set to
   LHFONE  =     F    Hartree Fock one center treatment
   AEXX    =    0.0000 exact exchange contribution

 Linear response parameters
   LEPSILON=     F    determine dielectric tensor
   LRPA    =     F    only Hartree local field effects (RPA)
   LNABLA  =     F    use nabla operator in PAW spheres
   LVEL    =     F    velocity operator in full k-point grid
   LINTERFAST=   F  fast interpolation
   KINTER  =     0    interpolate to denser k-point grid
   CSHIFT  =0.1000    complex shift for real part using Kramers Kronig
   OMEGAMAX=  -1.0    maximum frequency
   DEG_THRESHOLD= 0.2000000E-02 threshold for treating states as degnerate
   RTIME   =    0.100 relaxation time in fs

 Orbital magnetization related:
   ORBITALMAG=     F  switch on orbital magnetization
   LCHIMAG   =     F  perturbation theory with respect to B field
   DQ        =  0.001000  dq finite difference perturbation B field



--------------------------------------------------------------------------------------------------------


 Static calculation
 charge density and potential will be updated during run
 spin polarized calculation
 RMM-DIIS sequential band-by-band and
  variant of blocked Davidson during initial phase
 perform sub-space diagonalisation
    before iterative eigenvector-optimisation
 modified Broyden-mixing scheme, WC =      100.0
 initial mixing is a Kerker type mixing with AMIX =  0.4000 and BMIX =      1.0000
 Hartree-type preconditioning will be used
 using additional bands            5
 reciprocal scheme for non local part
 use partial core corrections
 calculate Harris-corrections to forces 
   (improved forces if not selfconsistent)
 use gradient corrections 
 use of overlap-Matrix (Vanderbilt PP)
 Gauss-broadening in eV      SIGMA  =   0.05


--------------------------------------------------------------------------------------------------------


  energy-cutoff  :      500.00
  volume of cell :       46.68
      direct lattice vectors                 reciprocal lattice vectors
     0.000000000  2.857845913  2.857845913    -0.174956948  0.174956948  0.174956948
     2.857845913  0.000000000  2.857845913     0.174956948 -0.174956948  0.174956948
     2.857845913  2.857845913  0.000000000     0.174956948  0.174956948 -0.174956948

  length of vectors
     4.041604450  4.041604450  4.041604450     0.303034324  0.303034324  0.303034324


 
 k-points in units of 2pi/SCALE and weight: Automatic Mesh # Generates Automatically
   0.00000000  0.00000000  0.00000000       0.000
  -0.06415088  0.06415088  0.06415088       0.002
  -0.12830176  0.12830176  0.12830176       0.002
  -0.19245264  0.19245264  0.19245264       0.002
  -0.25660352  0.25660352  0.25660352       0.002
  -0.32075441  0.32075441  0.32075441       0.002
  -0.38490529  0.38490529  0.38490529       0.002
  -0.44905617  0.44905617  0.44905617       0.002
   0.00000000  0.00000000  0.12830176       0.002
  -0.06415088  0.06415088  0.19245264       0.007
  -0.12830176  0.12830176  0.25660352       0.007
  -0.19245264  0.19245264  0.32075441       0.007
  -0.25660352  0.25660352  0.38490529       0.007
  -0.32075441  0.32075441  0.44905617       0.007
  -0.38490529  0.38490529  0.51320705       0.007
   0.51320705 -0.51320705 -0.38490529       0.007
   0.44905617 -0.44905617 -0.32075441       0.007
   0.38490529 -0.38490529 -0.25660352       0.007
   0.32075441 -0.32075441 -0.19245264       0.007
   0.25660352 -0.25660352 -0.12830176       0.007
   0.19245264 -0.19245264 -0.06415088       0.007
   0.12830176 -0.12830176  0.00000000       0.004
   0.00000000  0.00000000  0.25660352       0.002
  -0.06415088  0.06415088  0.32075441       0.007
  -0.12830176  0.12830176  0.38490529       0.007
  -0.19245264  0.19245264  0.44905617       0.007
  -0.25660352  0.25660352  0.51320705       0.007
  -0.32075441  0.32075441  0.57735793       0.007
   0.57735793 -0.57735793 -0.32075441       0.007
   0.51320705 -0.51320705 -0.25660352       0.007
   0.44905617 -0.44905617 -0.19245264       0.007
   0.38490529 -0.38490529 -0.12830176       0.007
   0.32075441 -0.32075441 -0.06415088       0.007
   0.25660352 -0.25660352 -0.00000000       0.004
   0.00000000  0.00000000  0.38490529       0.002
  -0.06415088  0.06415088  0.44905617       0.007
  -0.12830176  0.12830176  0.51320705       0.007
  -0.19245264  0.19245264  0.57735793       0.007
  -0.25660352  0.25660352  0.64150881       0.007
   0.64150881 -0.64150881 -0.25660352       0.007
   0.57735793 -0.57735793 -0.19245264       0.007
   0.51320705 -0.51320705 -0.12830176       0.007
   0.44905617 -0.44905617 -0.06415088       0.007
   0.38490529 -0.38490529  0.00000000       0.004
   0.00000000  0.00000000  0.51320705       0.002
  -0.06415088  0.06415088  0.57735793       0.007
  -0.12830176  0.12830176  0.64150881       0.007
  -0.19245264  0.19245264  0.70565969       0.007
   0.70565969 -0.70565969 -0.19245264       0.007
   0.64150881 -0.64150881 -0.12830176       0.007
   0.57735793 -0.57735793 -0.06415088       0.007
   0.51320705 -0.51320705  0.00000000       0.004
   0.00000000  0.00000000  0.64150881       0.002
  -0.06415088  0.06415088  0.70565969       0.007
  -0.12830176  0.12830176  0.76981057       0.007
   0.76981057 -0.76981057 -0.12830176       0.007
   0.70565969 -0.70565969 -0.06415088       0.007
   0.64150881 -0.64150881  0.00000000       0.004
   0.00000000  0.00000000  0.76981057       0.002
  -0.06415088  0.06415088  0.83396145       0.007
   0.83396145 -0.83396145 -0.06415088       0.007
   0.76981057 -0.76981057  0.00000000       0.004
   0.00000000  0.00000000  0.89811234       0.002
   0.89811234 -0.89811234  0.00000000       0.004
   0.00000000  0.12830176  0.25660352       0.007
  -0.06415088  0.19245264  0.32075441       0.014
  -0.12830176  0.25660352  0.38490529       0.014
  -0.19245264  0.32075441  0.44905617       0.014
  -0.25660352  0.38490529  0.51320705       0.014
   0.64150881 -0.51320705 -0.38490529       0.014
  -0.00000000  0.12830176  0.38490529       0.007
  -0.06415088  0.19245264  0.44905617       0.014
  -0.12830176  0.25660352  0.51320705       0.014
  -0.19245264  0.32075441  0.57735793       0.014
   0.70565969 -0.57735793 -0.32075441       0.014
   0.64150881 -0.51320705 -0.25660352       0.014
   0.57735793 -0.44905617 -0.19245264       0.014
   0.51320705 -0.38490529 -0.12830176       0.014
   0.44905617 -0.32075441 -0.06415088       0.014
   0.38490529 -0.25660352  0.00000000       0.007
   0.00000000  0.12830176  0.51320705       0.007
  -0.06415088  0.19245264  0.57735793       0.014
  -0.12830176  0.25660352  0.64150881       0.014
   0.76981057 -0.64150881 -0.25660352       0.014
   0.70565969 -0.57735793 -0.19245264       0.014
   0.64150881 -0.51320705 -0.12830176       0.014
   0.57735793 -0.44905617 -0.06415088       0.014
   0.51320705 -0.38490529  0.00000000       0.007
  -0.00000000  0.12830176  0.64150881       0.007
  -0.06415088  0.19245264  0.70565969       0.014
   0.83396145 -0.70565969 -0.19245264       0.014
   0.76981057 -0.64150881 -0.12830176       0.014
   0.70565969 -0.57735793 -0.06415088       0.014
   0.64150881 -0.51320705 -0.00000000       0.007
   0.00000000  0.12830176  0.76981057       0.007
   0.89811234 -0.76981057 -0.12830176       0.014
   0.83396145 -0.70565969 -0.06415088       0.014
   0.76981057 -0.64150881  0.00000000       0.007
   0.96226322 -0.83396145 -0.06415088       0.007
   0.89811234 -0.76981057 -0.00000000       0.007
   0.00000000  0.25660352  0.51320705       0.007
  -0.06415088  0.32075441  0.57735793       0.014
   0.83396145 -0.57735793 -0.32075441       0.014
   0.76981057 -0.51320705 -0.25660352       0.014
   0.00000000  0.25660352  0.64150881       0.007
   0.89811234 -0.64150881 -0.25660352       0.014
   0.83396145 -0.57735793 -0.19245264       0.014
   0.76981057 -0.51320705 -0.12830176       0.014
   0.70565969 -0.44905617 -0.06415088       0.014
   0.64150881 -0.38490529 -0.00000000       0.007
   0.96226322 -0.70565969 -0.19245264       0.007
   0.89811234 -0.64150881 -0.12830176       0.014
   0.83396145 -0.57735793 -0.06415088       0.014
   0.76981057 -0.51320705  0.00000000       0.007
   0.96226322 -0.70565969 -0.06415088       0.007
   0.89811234 -0.64150881  0.00000000       0.007
   0.96226322 -0.57735793 -0.19245264       0.007
   0.89811234 -0.51320705 -0.12830176       0.014
   0.96226322 -0.57735793 -0.06415088       0.007
   0.89811234 -0.51320705  0.00000000       0.007
 
 k-points in reciprocal lattice and weights: Automatic Mesh # Generates Automatically
   0.00000000  0.00000000  0.00000000       0.000
   0.06666667  0.00000000  0.00000000       0.002
   0.13333333  0.00000000  0.00000000       0.002
   0.20000000  0.00000000  0.00000000       0.002
   0.26666667  0.00000000  0.00000000       0.002
   0.33333333  0.00000000  0.00000000       0.002
   0.40000000  0.00000000  0.00000000       0.002
   0.46666667  0.00000000  0.00000000       0.002
   0.06666667  0.06666667  0.00000000       0.002
   0.13333333  0.06666667  0.00000000       0.007
   0.20000000  0.06666667  0.00000000       0.007
   0.26666667  0.06666667  0.00000000       0.007
   0.33333333  0.06666667  0.00000000       0.007
   0.40000000  0.06666667  0.00000000       0.007
   0.46666667  0.06666667  0.00000000       0.007
  -0.46666667  0.06666667  0.00000000       0.007
  -0.40000000  0.06666667  0.00000000       0.007
  -0.33333333  0.06666667  0.00000000       0.007
  -0.26666667  0.06666667  0.00000000       0.007
  -0.20000000  0.06666667  0.00000000       0.007
  -0.13333333  0.06666667  0.00000000       0.007
  -0.06666667  0.06666667  0.00000000       0.004
   0.13333333  0.13333333  0.00000000       0.002
   0.20000000  0.13333333  0.00000000       0.007
   0.26666667  0.13333333  0.00000000       0.007
   0.33333333  0.13333333  0.00000000       0.007
   0.40000000  0.13333333  0.00000000       0.007
   0.46666667  0.13333333  0.00000000       0.007
  -0.46666667  0.13333333  0.00000000       0.007
  -0.40000000  0.13333333  0.00000000       0.007
  -0.33333333  0.13333333  0.00000000       0.007
  -0.26666667  0.13333333  0.00000000       0.007
  -0.20000000  0.13333333  0.00000000       0.007
  -0.13333333  0.13333333  0.00000000       0.004
   0.20000000  0.20000000  0.00000000       0.002
   0.26666667  0.20000000  0.00000000       0.007
   0.33333333  0.20000000  0.00000000       0.007
   0.40000000  0.20000000  0.00000000       0.007
   0.46666667  0.20000000  0.00000000       0.007
  -0.46666667  0.20000000  0.00000000       0.007
  -0.40000000  0.20000000  0.00000000       0.007
  -0.33333333  0.20000000  0.00000000       0.007
  -0.26666667  0.20000000  0.00000000       0.007
  -0.20000000  0.20000000  0.00000000       0.004
   0.26666667  0.26666667  0.00000000       0.002
   0.33333333  0.26666667  0.00000000       0.007
   0.40000000  0.26666667  0.00000000       0.007
   0.46666667  0.26666667  0.00000000       0.007
  -0.46666667  0.26666667  0.00000000       0.007
  -0.40000000  0.26666667  0.00000000       0.007
  -0.33333333  0.26666667  0.00000000       0.007
  -0.26666667  0.26666667  0.00000000       0.004
   0.33333333  0.33333333  0.00000000       0.002
   0.40000000  0.33333333  0.00000000       0.007
   0.46666667  0.33333333  0.00000000       0.007
  -0.46666667  0.33333333  0.00000000       0.007
  -0.40000000  0.33333333  0.00000000       0.007
  -0.33333333  0.33333333  0.00000000       0.004
   0.40000000  0.40000000  0.00000000       0.002
   0.46666667  0.40000000  0.00000000       0.007
  -0.46666667  0.40000000  0.00000000       0.007
  -0.40000000  0.40000000  0.00000000       0.004
   0.46666667  0.46666667  0.00000000       0.002
  -0.46666667  0.46666667  0.00000000       0.004
   0.20000000  0.13333333  0.06666667       0.007
   0.26666667  0.13333333  0.06666667       0.014
   0.33333333  0.13333333  0.06666667       0.014
   0.40000000  0.13333333  0.06666667       0.014
   0.46666667  0.13333333  0.06666667       0.014
  -0.46666667  0.13333333  0.06666667       0.014
   0.26666667  0.20000000  0.06666667       0.007
   0.33333333  0.20000000  0.06666667       0.014
   0.40000000  0.20000000  0.06666667       0.014
   0.46666667  0.20000000  0.06666667       0.014
  -0.46666667  0.20000000  0.06666667       0.014
  -0.40000000  0.20000000  0.06666667       0.014
  -0.33333333  0.20000000  0.06666667       0.014
  -0.26666667  0.20000000  0.06666667       0.014
  -0.20000000  0.20000000  0.06666667       0.014
  -0.13333333  0.20000000  0.06666667       0.007
   0.33333333  0.26666667  0.06666667       0.007
   0.40000000  0.26666667  0.06666667       0.014
   0.46666667  0.26666667  0.06666667       0.014
  -0.46666667  0.26666667  0.06666667       0.014
  -0.40000000  0.26666667  0.06666667       0.014
  -0.33333333  0.26666667  0.06666667       0.014
  -0.26666667  0.26666667  0.06666667       0.014
  -0.20000000  0.26666667  0.06666667       0.007
   0.40000000  0.33333333  0.06666667       0.007
   0.46666667  0.33333333  0.06666667       0.014
  -0.46666667  0.33333333  0.06666667       0.014
  -0.40000000  0.33333333  0.06666667       0.014
  -0.33333333  0.33333333  0.06666667       0.014
  -0.26666667  0.33333333  0.06666667       0.007
   0.46666667  0.40000000  0.06666667       0.007
  -0.46666667  0.40000000  0.06666667       0.014
  -0.40000000  0.40000000  0.06666667       0.014
  -0.33333333  0.40000000  0.06666667       0.007
  -0.46666667  0.46666667  0.06666667       0.007
  -0.40000000  0.46666667  0.06666667       0.007
   0.40000000  0.26666667  0.13333333       0.007
   0.46666667  0.26666667  0.13333333       0.014
  -0.46666667  0.26666667  0.13333333       0.014
  -0.40000000  0.26666667  0.13333333       0.014
   0.46666667  0.33333333  0.13333333       0.007
  -0.46666667  0.33333333  0.13333333       0.014
  -0.40000000  0.33333333  0.13333333       0.014
  -0.33333333  0.33333333  0.13333333       0.014
  -0.26666667  0.33333333  0.13333333       0.014
  -0.20000000  0.33333333  0.13333333       0.007
  -0.46666667  0.40000000  0.13333333       0.007
  -0.40000000  0.40000000  0.13333333       0.014
  -0.33333333  0.40000000  0.13333333       0.014
  -0.26666667  0.40000000  0.13333333       0.007
  -0.40000000  0.46666667  0.13333333       0.007
  -0.33333333  0.46666667  0.13333333       0.007
  -0.40000000  0.40000000  0.20000000       0.007
  -0.33333333  0.40000000  0.20000000       0.014
  -0.33333333  0.46666667  0.20000000       0.007
  -0.26666667  0.46666667  0.20000000       0.007
 
 position of ions in fractional coordinates (direct lattice) 
   0.00000000  0.00000000  0.00000000
   0.25000000  0.25000000  0.25000000
   0.75000000  0.75000000  0.75000000
   0.50000000  0.50000000  0.50000000
 
 position of ions in cartesian coordinates  (Angst):
   0.00000000  0.00000000  0.00000000
   1.42892296  1.42892296  1.42892296
   4.28676887  4.28676887  4.28676887
   2.85784591  2.85784591  2.85784591
 


--------------------------------------------------------------------------------------------------------


 k-point  1 :   0.0000 0.0000 0.0000  plane waves:    1243
 k-point  2 :   0.0667 0.0000 0.0000  plane waves:    1212
 k-point  3 :   0.1333 0.0000 0.0000  plane waves:    1209
 k-point  4 :   0.2000 0.0000 0.0000  plane waves:    1191
 k-point  5 :   0.2667 0.0000 0.0000  plane waves:    1185
 k-point  6 :   0.3333 0.0000 0.0000  plane waves:    1176
 k-point  7 :   0.4000 0.0000 0.0000  plane waves:    1185
 k-point  8 :   0.4667 0.0000 0.0000  plane waves:    1182
 k-point  9 :   0.0667 0.0667 0.0000  plane waves:    1219
 k-point 10 :   0.1333 0.0667 0.0000  plane waves:    1208
 k-point 11 :   0.2000 0.0667 0.0000  plane waves:    1188
 k-point 12 :   0.2667 0.0667 0.0000  plane waves:    1197
 k-point 13 :   0.3333 0.0667 0.0000  plane waves:    1185
 k-point 14 :   0.4000 0.0667 0.0000  plane waves:    1180
 k-point 15 :   0.4667 0.0667 0.0000  plane waves:    1182
 k-point 16 :  -0.4667 0.0667 0.0000  plane waves:    1184
 k-point 17 :  -0.4000 0.0667 0.0000  plane waves:    1181
 k-point 18 :  -0.3333 0.0667 0.0000  plane waves:    1183
 k-point 19 :  -0.2667 0.0667 0.0000  plane waves:    1191
 k-point 20 :  -0.2000 0.0667 0.0000  plane waves:    1195
 k-point 21 :  -0.1333 0.0667 0.0000  plane waves:    1194
 k-point 22 :  -0.0667 0.0667 0.0000  plane waves:    1209
 k-point 23 :   0.1333 0.1333 0.0000  plane waves:    1195
 k-point 24 :   0.2000 0.1333 0.0000  plane waves:    1190
 k-point 25 :   0.2667 0.1333 0.0000  plane waves:    1194
 k-point 26 :   0.3333 0.1333 0.0000  plane waves:    1192
 k-point 27 :   0.4000 0.1333 0.0000  plane waves:    1184
 k-point 28 :   0.4667 0.1333 0.0000  plane waves:    1185
 k-point 29 :  -0.4667 0.1333 0.0000  plane waves:    1183
 k-point 30 :  -0.4000 0.1333 0.0000  plane waves:    1181
 k-point 31 :  -0.3333 0.1333 0.0000  plane waves:    1178
 k-point 32 :  -0.2667 0.1333 0.0000  plane waves:    1184
 k-point 33 :  -0.2000 0.1333 0.0000  plane waves:    1188
 k-point 34 :  -0.1333 0.1333 0.0000  plane waves:    1187
 k-point 35 :   0.2000 0.2000 0.0000  plane waves:    1191
 k-point 36 :   0.2667 0.2000 0.0000  plane waves:    1195
 k-point 37 :   0.3333 0.2000 0.0000  plane waves:    1193
 k-point 38 :   0.4000 0.2000 0.0000  plane waves:    1189
 k-point 39 :   0.4667 0.2000 0.0000  plane waves:    1186
 k-point 40 :  -0.4667 0.2000 0.0000  plane waves:    1187
 k-point 41 :  -0.4000 0.2000 0.0000  plane waves:    1176
 k-point 42 :  -0.3333 0.2000 0.0000  plane waves:    1179
 k-point 43 :  -0.2667 0.2000 0.0000  plane waves:    1182
 k-point 44 :  -0.2000 0.2000 0.0000  plane waves:    1187
 k-point 45 :   0.2667 0.2667 0.0000  plane waves:    1190
 k-point 46 :   0.3333 0.2667 0.0000  plane waves:    1189
 k-point 47 :   0.4000 0.2667 0.0000  plane waves:    1190
 k-point 48 :   0.4667 0.2667 0.0000  plane waves:    1190
 k-point 49 :  -0.4667 0.2667 0.0000  plane waves:    1180
 k-point 50 :  -0.4000 0.2667 0.0000  plane waves:    1176
 k-point 51 :  -0.3333 0.2667 0.0000  plane waves:    1183
 k-point 52 :  -0.2667 0.2667 0.0000  plane waves:    1183
 k-point 53 :   0.3333 0.3333 0.0000  plane waves:    1186
 k-point 54 :   0.4000 0.3333 0.0000  plane waves:    1190
 k-point 55 :   0.4667 0.3333 0.0000  plane waves:    1188
 k-point 56 :  -0.4667 0.3333 0.0000  plane waves:    1183
 k-point 57 :  -0.4000 0.3333 0.0000  plane waves:    1178
 k-point 58 :  -0.3333 0.3333 0.0000  plane waves:    1182
 k-point 59 :   0.4000 0.4000 0.0000  plane waves:    1190
 k-point 60 :   0.4667 0.4000 0.0000  plane waves:    1186
 k-point 61 :  -0.4667 0.4000 0.0000  plane waves:    1176
 k-point 62 :  -0.4000 0.4000 0.0000  plane waves:    1182
 k-point 63 :   0.4667 0.4667 0.0000  plane waves:    1162
 k-point 64 :  -0.4667 0.4667 0.0000  plane waves:    1178
 k-point 65 :   0.2000 0.1333 0.0667  plane waves:    1187
 k-point 66 :   0.2667 0.1333 0.0667  plane waves:    1188
 k-point 67 :   0.3333 0.1333 0.0667  plane waves:    1198
 k-point 68 :   0.4000 0.1333 0.0667  plane waves:    1184
 k-point 69 :   0.4667 0.1333 0.0667  plane waves:    1185
 k-point 70 :  -0.4667 0.1333 0.0667  plane waves:    1184
 k-point 71 :   0.2667 0.2000 0.0667  plane waves:    1188
 k-point 72 :   0.3333 0.2000 0.0667  plane waves:    1195
 k-point 73 :   0.4000 0.2000 0.0667  plane waves:    1186
 k-point 74 :   0.4667 0.2000 0.0667  plane waves:    1183
 k-point 75 :  -0.4667 0.2000 0.0667  plane waves:    1183
 k-point 76 :  -0.4000 0.2000 0.0667  plane waves:    1184
 k-point 77 :  -0.3333 0.2000 0.0667  plane waves:    1180
 k-point 78 :  -0.2667 0.2000 0.0667  plane waves:    1179
 k-point 79 :  -0.2000 0.2000 0.0667  plane waves:    1186
 k-point 80 :  -0.1333 0.2000 0.0667  plane waves:    1190
 k-point 81 :   0.3333 0.2667 0.0667  plane waves:    1187
 k-point 82 :   0.4000 0.2667 0.0667  plane waves:    1184
 k-point 83 :   0.4667 0.2667 0.0667  plane waves:    1185
 k-point 84 :  -0.4667 0.2667 0.0667  plane waves:    1183
 k-point 85 :  -0.4000 0.2667 0.0667  plane waves:    1179
 k-point 86 :  -0.3333 0.2667 0.0667  plane waves:    1179
 k-point 87 :  -0.2667 0.2667 0.0667  plane waves:    1180
 k-point 88 :  -0.2000 0.2667 0.0667  plane waves:    1186
 k-point 89 :   0.4000 0.3333 0.0667  plane waves:    1195
 k-point 90 :   0.4667 0.3333 0.0667  plane waves:    1192
 k-point 91 :  -0.4667 0.3333 0.0667  plane waves:    1192
 k-point 92 :  -0.4000 0.3333 0.0667  plane waves:    1177
 k-point 93 :  -0.3333 0.3333 0.0667  plane waves:    1174
 k-point 94 :  -0.2667 0.3333 0.0667  plane waves:    1180
 k-point 95 :   0.4667 0.4000 0.0667  plane waves:    1189
 k-point 96 :  -0.4667 0.4000 0.0667  plane waves:    1183
 k-point 97 :  -0.4000 0.4000 0.0667  plane waves:    1176
 k-point 98 :  -0.3333 0.4000 0.0667  plane waves:    1177
 k-point 99 :  -0.4667 0.4667 0.0667  plane waves:    1184
 k-point ** :  -0.4000 0.4667 0.0667  plane waves:    1173
 k-point ** :   0.4000 0.2667 0.1333  plane waves:    1190
 k-point ** :   0.4667 0.2667 0.1333  plane waves:    1183
 k-point ** :  -0.4667 0.2667 0.1333  plane waves:    1183
 k-point ** :  -0.4000 0.2667 0.1333  plane waves:    1184
 k-point ** :   0.4667 0.3333 0.1333  plane waves:    1188
 k-point ** :  -0.4667 0.3333 0.1333  plane waves:    1191
 k-point ** :  -0.4000 0.3333 0.1333  plane waves:    1189
 k-point ** :  -0.3333 0.3333 0.1333  plane waves:    1181
 k-point ** :  -0.2667 0.3333 0.1333  plane waves:    1184
 k-point ** :  -0.2000 0.3333 0.1333  plane waves:    1182
 k-point ** :  -0.4667 0.4000 0.1333  plane waves:    1185
 k-point ** :  -0.4000 0.4000 0.1333  plane waves:    1187
 k-point ** :  -0.3333 0.4000 0.1333  plane waves:    1179
 k-point ** :  -0.2667 0.4000 0.1333  plane waves:    1185
 k-point ** :  -0.4000 0.4667 0.1333  plane waves:    1181
 k-point ** :  -0.3333 0.4667 0.1333  plane waves:    1183
 k-point ** :  -0.4000 0.4000 0.2000  plane waves:    1183
 k-point ** :  -0.3333 0.4000 0.2000  plane waves:    1186
 k-point ** :  -0.3333 0.4667 0.2000  plane waves:    1180
 k-point ** :  -0.2667 0.4667 0.2000  plane waves:    1184

 maximum and minimum number of plane-waves per node :      1243     1162

 maximum number of plane-waves:      1243
 maximum index in each direction: 
   IXMAX=    7   IYMAX=    7   IZMAX=    7
   IXMIN=   -7   IYMIN=   -7   IZMIN=   -7

 NGX is ok and might be reduce to  30
 NGY is ok and might be reduce to  30
 NGZ is ok and might be reduce to  30

 serial   3D FFT for wavefunctions
 parallel 3D FFT for charge:
    minimum data exchange during FFTs selected (reduces bandwidth)


 total amount of memory used by VASP on root node   145146. kBytes
========================================================================

   base      :      30000. kBytes
   nonl-proj :      64568. kBytes
   fftplans  :       8118. kBytes
   grid      :       7070. kBytes
   one-center:        124. kBytes
   wavefun   :      35266. kBytes
 
     INWAV:  cpu time    0.0000: real time    0.0001
 Broyden mixing: mesh for mixing (old mesh)
   NGX = 15   NGY = 15   NGZ = 15
  (NGX  = 60   NGY  = 60   NGZ  = 60)
  gives a total of   3375 points

 initial charge density was supplied:
 charge density of overlapping atoms calculated
 number of electron      45.0000000 magnetization      -0.5000000
 keeping initial charge density in first step


--------------------------------------------------------------------------------------------------------


 Maximum index for augmentation-charges        46447 (set IRDMAX)


--------------------------------------------------------------------------------------------------------


 First call to EWALD:  gamma=   0.492
 Maximum number of real-space cells 3x 3x 3
 Maximum number of reciprocal cells 3x 3x 3

 FEWALD executed in parallel
    FEWALD:  cpu time    0.0010: real time    0.0011


----------------------------------------- Iteration    1(   1)  ---------------------------------------


    POTLOK:  cpu time    0.0570: real time    0.0580
    SETDIJ:  cpu time    0.1670: real time    0.1678
     EDDAV:  cpu time    6.3320: real time    6.3374
       DOS:  cpu time    0.0050: real time    0.0051
    --------------------------------------------
      LOOP:  cpu time    6.5630: real time    6.5715

 eigenvalue-minimisations  : 13944
 total energy-change (2. order) : 0.5152364E+03  (-0.2521017E+04)
 number of electron      45.0000000 magnetization      -0.5000000
 augmentation part       45.0000000 magnetization      -0.5000000

 Free energy of the ion-electron system (eV)
  ---------------------------------------------------
  alpha Z        PSCENC =       310.87778216
  Ewald energy   TEWEN  =     -4888.46704633
  -Hartree energ DENC   =     -1734.48550259
  -exchange      EXHF   =         0.00000000
  -V(xc)+E(xc)   XCENC  =       200.49687115
  PAW double counting   =      5439.98770429    -5609.87680171
  entropy T*S    EENTRO =        -0.00219958
  eigenvalues    EBANDS =       118.58193176
  atomic energy  EATOM  =      6678.12361163
  Solvation  Ediel_sol  =         0.00000000
  ---------------------------------------------------
  free energy    TOTEN  =       515.23635079 eV

  energy without entropy =      515.23855037  energy(sigma->0) =      515.23745058


--------------------------------------------------------------------------------------------------------




----------------------------------------- Iteration    1(   2)  ---------------------------------------


     EDDAV:  cpu time    6.1731: real time    6.1856
       DOS:  cpu time    0.0060: real time    0.0059
    --------------------------------------------
      LOOP:  cpu time    6.1791: real time    6.1954

 eigenvalue-minimisations  : 13460
 total energy-change (2. order) :-0.5125163E+03  (-0.4999906E+03)
 number of electron      45.0000000 magnetization      -0.5000000
 augmentation part       45.0000000 magnetization      -0.5000000

 Free energy of the ion-electron system (eV)
  ---------------------------------------------------
  alpha Z        PSCENC =       310.87778216
  Ewald energy   TEWEN  =     -4888.46704633
  -Hartree energ DENC   =     -1734.48550259
  -exchange      EXHF   =         0.00000000
  -V(xc)+E(xc)   XCENC  =       200.49687115
  PAW double counting   =      5439.98770429    -5609.87680171
  entropy T*S    EENTRO =        -0.00617007
  eigenvalues    EBANDS =      -393.93040387
  atomic energy  EATOM  =      6678.12361163
  Solvation  Ediel_sol  =         0.00000000
  ---------------------------------------------------
  free energy    TOTEN  =         2.72004466 eV

  energy without entropy =        2.72621473  energy(sigma->0) =        2.72312969


--------------------------------------------------------------------------------------------------------




----------------------------------------- Iteration    1(   3)  ---------------------------------------


     EDDAV:  cpu time    6.6120: real time    6.6247
       DOS:  cpu time    0.0060: real time    0.0060
    --------------------------------------------
      LOOP:  cpu time    6.6180: real time    6.6340

 eigenvalue-minimisations  : 14912
 total energy-change (2. order) :-0.3518911E+02  (-0.3343040E+02)
 number of electron      45.0000000 magnetization      -0.5000000
 augmentation part       45.0000000 magnetization      -0.5000000

 Free energy of the ion-electron system (eV)
  ---------------------------------------------------
  alpha Z        PSCENC =       310.87778216
  Ewald energy   TEWEN  =     -4888.46704633
  -Hartree energ DENC   =     -1734.48550259
  -exchange      EXHF   =         0.00000000
  -V(xc)+E(xc)   XCENC  =       200.49687115
  PAW double counting   =      5439.98770429    -5609.87680171
  entropy T*S    EENTRO =        -0.01067631
  eigenvalues    EBANDS =      -429.11501069
  atomic energy  EATOM  =      6678.12361163
  Solvation  Ediel_sol  =         0.00000000
  ---------------------------------------------------
  free energy    TOTEN  =       -32.46906840 eV

  energy without entropy =      -32.45839209  energy(sigma->0) =      -32.46373025


--------------------------------------------------------------------------------------------------------




----------------------------------------- Iteration    1(   4)  ---------------------------------------


     EDDAV:  cpu time    6.8550: real time    6.8676
       DOS:  cpu time    0.0060: real time    0.0062
    --------------------------------------------
      LOOP:  cpu time    6.8610: real time    6.8774

 eigenvalue-minimisations  : 15692
 total energy-change (2. order) :-0.1140337E+01  (-0.1117041E+01)
 number of electron      45.0000000 magnetization      -0.5000000
 augmentation part       45.0000000 magnetization      -0.5000000

 Free energy of the ion-electron system (eV)
  ---------------------------------------------------
  alpha Z        PSCENC =       310.87778216
  Ewald energy   TEWEN  =     -4888.46704633
  -Hartree energ DENC   =     -1734.48550259
  -exchange      EXHF   =         0.00000000
  -V(xc)+E(xc)   XCENC  =       200.49687115
  PAW double counting   =      5439.98770429    -5609.87680171
  entropy T*S    EENTRO =        -0.01170768
  eigenvalues    EBANDS =      -430.25431622
  atomic energy  EATOM  =      6678.12361163
  Solvation  Ediel_sol  =         0.00000000
  ---------------------------------------------------
  free energy    TOTEN  =       -33.60940530 eV

  energy without entropy =      -33.59769762  energy(sigma->0) =      -33.60355146


--------------------------------------------------------------------------------------------------------




----------------------------------------- Iteration    1(   5)  ---------------------------------------


     EDDAV:  cpu time    6.8300: real time    6.8435
       DOS:  cpu time    0.0070: real time    0.0064
    --------------------------------------------
      LOOP:  cpu time    6.8370: real time    6.8536

 eigenvalue-minimisations  : 15616
 total energy-change (2. order) :-0.2505734E-01  (-0.2500965E-01)
 number of electron      45.0000000 magnetization      -0.5000000
 augmentation part       45.0000000 magnetization      -0.5000000

 Free energy of the ion-electron system (eV)
  ---------------------------------------------------
  alpha Z        PSCENC =       310.87778216
  Ewald energy   TEWEN  =     -4888.46704633
  -Hartree energ DENC   =     -1734.48550259
  -exchange      EXHF   =         0.00000000
  -V(xc)+E(xc)   XCENC  =       200.49687115
  PAW double counting   =      5439.98770429    -5609.87680171
  entropy T*S    EENTRO =        -0.01171106
  eigenvalues    EBANDS =      -430.27937018
  atomic energy  EATOM  =      6678.12361163
  Solvation  Ediel_sol  =         0.00000000
  ---------------------------------------------------
  free energy    TOTEN  =       -33.63446264 eV

  energy without entropy =      -33.62275158  energy(sigma->0) =      -33.62860711


--------------------------------------------------------------------------------------------------------




----------------------------------------- Iteration    1(   6)  ---------------------------------------


     EDDAV:  cpu time    6.9030: real time    6.9153
       DOS:  cpu time    0.0060: real time    0.0062
    CHARGE:  cpu time    0.5479: real time    0.5495
    MIXING:  cpu time    0.0020: real time    0.0019
    --------------------------------------------
      LOOP:  cpu time    7.4589: real time    7.4756

 eigenvalue-minimisations  : 15848
 total energy-change (2. order) :-0.8334185E-03  (-0.8333397E-03)
 number of electron      45.0000000 magnetization       1.0586903
 augmentation part       20.6077704 magnetization       0.5515034

 Broyden mixing:
  rms(total) = 0.21511E+01    rms(broyden)= 0.21510E+01
  rms(prec ) = 0.41527E+01
  weight for this iteration     100.00

 Free energy of the ion-electron system (eV)
  ---------------------------------------------------
  alpha Z        PSCENC =       310.87778216
  Ewald energy   TEWEN  =     -4888.46704633
  -Hartree energ DENC   =     -1734.48550259
  -exchange      EXHF   =         0.00000000
  -V(xc)+E(xc)   XCENC  =       200.49687115
  PAW double counting   =      5439.98770429    -5609.87680171
  entropy T*S    EENTRO =        -0.01171493
  eigenvalues    EBANDS =      -430.28019973
  atomic energy  EATOM  =      6678.12361163
  Solvation  Ediel_sol  =         0.00000000
  ---------------------------------------------------
  free energy    TOTEN  =       -33.63529606 eV

  energy without entropy =      -33.62358113  energy(sigma->0) =      -33.62943859


--------------------------------------------------------------------------------------------------------




----------------------------------------- Iteration    1(   7)  ---------------------------------------


    POTLOK:  cpu time    0.3459: real time    0.3474
    SETDIJ:  cpu time    0.1690: real time    0.1689
    EDDIAG:  cpu time    1.2228: real time    1.2239
  RMM-DIIS:  cpu time    4.9063: real time    4.9109
    ORTHCH:  cpu time    0.0610: real time    0.0606
       DOS:  cpu time    0.0060: real time    0.0060
    CHARGE:  cpu time    0.5559: real time    0.5574
    MIXING:  cpu time    0.0030: real time    0.0024
    --------------------------------------------
      LOOP:  cpu time    7.2709: real time    7.2812

 eigenvalue-minimisations  : 13691
 total energy-change (2. order) : 0.1233161E+01  (-0.4758335E+01)
 number of electron      45.0000000 magnetization       1.4974641
 augmentation part       23.1953539 magnetization       0.8004544

 Broyden mixing:
  rms(total) = 0.13744E+01    rms(broyden)= 0.13743E+01
  rms(prec ) = 0.32077E+01
  weight for this iteration     100.00

 eigenvalues of (default mixing * dielectric matrix)
  average eigenvalue GAMMA=   0.5810
  0.5810

 Free energy of the ion-electron system (eV)
  ---------------------------------------------------
  alpha Z        PSCENC =       310.87778216
  Ewald energy   TEWEN  =     -4888.46704633
  -Hartree energ DENC   =     -1616.83980966
  -exchange      EXHF   =         0.00000000
  -V(xc)+E(xc)   XCENC  =       195.34987999
  PAW double counting   =      5654.66726018    -5819.54621046
  entropy T*S    EENTRO =        -0.00691070
  eigenvalues    EBANDS =      -546.56069170
  atomic energy  EATOM  =      6678.12361163
  Solvation  Ediel_sol  =         0.00000000
  ---------------------------------------------------
  free energy    TOTEN  =       -32.40213489 eV

  energy without entropy =      -32.39522419  energy(sigma->0) =      -32.39867954


--------------------------------------------------------------------------------------------------------




----------------------------------------- Iteration    1(   8)  ---------------------------------------


    POTLOK:  cpu time    0.0570: real time    0.0577
    SETDIJ:  cpu time    0.1680: real time    0.1679
    EDDIAG:  cpu time    1.2218: real time    1.2232
  RMM-DIIS:  cpu time    5.5282: real time    5.5341
    ORTHCH:  cpu time    0.0610: real time    0.0604
       DOS:  cpu time    0.0060: real time    0.0063
    CHARGE:  cpu time    0.5489: real time    0.5504
    MIXING:  cpu time    0.0010: real time    0.0017
    --------------------------------------------
      LOOP:  cpu time    7.5938: real time    7.6055

 eigenvalue-minimisations  : 15768
 total energy-change (2. order) :-0.3889833E+01  (-0.1246350E+01)
 number of electron      45.0000000 magnetization       1.5453003
 augmentation part       22.6042274 magnetization       1.1104126

 Broyden mixing:
  rms(total) = 0.34846E+01    rms(broyden)= 0.34846E+01
  rms(prec ) = 0.11006E+02
  weight for this iteration     100.00

 eigenvalues of (default mixing * dielectric matrix)
  average eigenvalue GAMMA=   0.4173
  0.6670  0.1677

 Free energy of the ion-electron system (eV)
  ---------------------------------------------------
  alpha Z        PSCENC =       310.87778216
  Ewald energy   TEWEN  =     -4888.46704633
  -Hartree energ DENC   =     -1651.32127404
  -exchange      EXHF   =         0.00000000
  -V(xc)+E(xc)   XCENC  =       196.83508101
  PAW double counting   =      5830.05847558    -6001.28004402
  entropy T*S    EENTRO =        -0.00832746
  eigenvalues    EBANDS =      -511.11022607
  atomic energy  EATOM  =      6678.12361163
  Solvation  Ediel_sol  =         0.00000000
  ---------------------------------------------------
  free energy    TOTEN  =       -36.29196755 eV

  energy without entropy =      -36.28364009  energy(sigma->0) =      -36.28780382


--------------------------------------------------------------------------------------------------------




----------------------------------------- Iteration    1(   9)  ---------------------------------------


    POTLOK:  cpu time    0.0580: real time    0.0578
    SETDIJ:  cpu time    0.1660: real time    0.1676
    EDDIAG:  cpu time    1.2228: real time    1.2232
  RMM-DIIS:  cpu time    5.1622: real time    5.1692
    ORTHCH:  cpu time    0.0590: real time    0.0601
       DOS:  cpu time    0.0060: real time    0.0062
    CHARGE:  cpu time    0.5659: real time    0.5658
    MIXING:  cpu time    0.0020: real time    0.0021
    --------------------------------------------
      LOOP:  cpu time    7.2429: real time    7.2560

 eigenvalue-minimisations  : 14715
 total energy-change (2. order) : 0.5192357E+01  (-0.7105449E+00)
 number of electron      45.0000000 magnetization       2.6311346
 augmentation part       22.3800937 magnetization       1.6800325

 Broyden mixing:
  rms(total) = 0.55694E+00    rms(broyden)= 0.55672E+00
  rms(prec ) = 0.69919E+00
  weight for this iteration     100.00

 eigenvalues of (default mixing * dielectric matrix)
  average eigenvalue GAMMA=   0.5468
  1.0325  0.4982  0.1097

 Free energy of the ion-electron system (eV)
  ---------------------------------------------------
  alpha Z        PSCENC =       310.87778216
  Ewald energy   TEWEN  =     -4888.46704633
  -Hartree energ DENC   =     -1654.63763134
  -exchange      EXHF   =         0.00000000
  -V(xc)+E(xc)   XCENC  =       197.03781171
  PAW double counting   =      5878.46443708    -6049.84873338
  entropy T*S    EENTRO =        -0.00915203
  eigenvalues    EBANDS =      -502.64069008
  atomic energy  EATOM  =      6678.12361163
  Solvation  Ediel_sol  =         0.00000000
  ---------------------------------------------------
  free energy    TOTEN  =       -31.09961059 eV

  energy without entropy =      -31.09045855  energy(sigma->0) =      -31.09503457


--------------------------------------------------------------------------------------------------------




----------------------------------------- Iteration    1(  10)  ---------------------------------------


    POTLOK:  cpu time    0.0580: real time    0.0579
    SETDIJ:  cpu time    0.1690: real time    0.1690
    EDDIAG:  cpu time    1.2218: real time    1.2240
  RMM-DIIS:  cpu time    6.2590: real time    6.2661
    ORTHCH:  cpu time    0.0600: real time    0.0605
       DOS:  cpu time    0.0060: real time    0.0061
    CHARGE:  cpu time    0.5689: real time    0.5686
    MIXING:  cpu time    0.0030: real time    0.0028
    --------------------------------------------
      LOOP:  cpu time    8.3467: real time    8.3588

 eigenvalue-minimisations  : 17907
 total energy-change (2. order) :-0.6020479E-01  (-0.1194761E+00)
 number of electron      45.0000000 magnetization       3.0062617
 augmentation part       22.2894404 magnetization       2.0152015

 Broyden mixing:
  rms(total) = 0.52062E+00    rms(broyden)= 0.52058E+00
  rms(prec ) = 0.11428E+01
  weight for this iteration     100.00

 eigenvalues of (default mixing * dielectric matrix)
  average eigenvalue GAMMA=   0.6765
  1.4716  0.1154  0.5595  0.5595

 Free energy of the ion-electron system (eV)
  ---------------------------------------------------
  alpha Z        PSCENC =       310.87778216
  Ewald energy   TEWEN  =     -4888.46704633
  -Hartree energ DENC   =     -1655.00190323
  -exchange      EXHF   =         0.00000000
  -V(xc)+E(xc)   XCENC  =       197.19017486
  PAW double counting   =      6001.34105934    -6174.15691990
  entropy T*S    EENTRO =        -0.00472824
  eigenvalues    EBANDS =      -501.06184566
  atomic energy  EATOM  =      6678.12361163
  Solvation  Ediel_sol  =         0.00000000
  ---------------------------------------------------
  free energy    TOTEN  =       -31.15981538 eV

  energy without entropy =      -31.15508713  energy(sigma->0) =      -31.15745126


--------------------------------------------------------------------------------------------------------




----------------------------------------- Iteration    1(  11)  ---------------------------------------


    POTLOK:  cpu time    0.0560: real time    0.0577
    SETDIJ:  cpu time    0.1680: real time    0.1674
    EDDIAG:  cpu time    1.2498: real time    1.2520
  RMM-DIIS:  cpu time    5.2172: real time    5.2243
    ORTHCH:  cpu time    0.0600: real time    0.0601
       DOS:  cpu time    0.0060: real time    0.0060
    CHARGE:  cpu time    0.5739: real time    0.5748
    MIXING:  cpu time    0.0020: real time    0.0019
    --------------------------------------------
      LOOP:  cpu time    7.3349: real time    7.3476

 eigenvalue-minimisations  : 14796
 total energy-change (2. order) : 0.3370517E-01  (-0.4547234E-01)
 number of electron      45.0000000 magnetization       3.2153298
 augmentation part       22.3237483 magnetization       2.2454405

 Broyden mixing:
  rms(total) = 0.25672E+00    rms(broyden)= 0.25669E+00
  rms(prec ) = 0.53616E+00
  weight for this iteration     100.00

 eigenvalues of (default mixing * dielectric matrix)
  average eigenvalue GAMMA=   0.6731
  1.5981  0.6959  0.6959  0.1151  0.2603

 Free energy of the ion-electron system (eV)
  ---------------------------------------------------
  alpha Z        PSCENC =       310.87778216
  Ewald energy   TEWEN  =     -4888.46704633
  -Hartree energ DENC   =     -1653.77648096
  -exchange      EXHF   =         0.00000000
  -V(xc)+E(xc)   XCENC  =       197.18079452
  PAW double counting   =      6056.07993311    -6229.40225437
  entropy T*S    EENTRO =        -0.00480978
  eigenvalues    EBANDS =      -501.73764018
  atomic energy  EATOM  =      6678.12361163
  Solvation  Ediel_sol  =         0.00000000
  ---------------------------------------------------
  free energy    TOTEN  =       -31.12611021 eV

  energy without entropy =      -31.12130043  energy(sigma->0) =      -31.12370532


--------------------------------------------------------------------------------------------------------




----------------------------------------- Iteration    1(  12)  ---------------------------------------


    POTLOK:  cpu time    0.0570: real time    0.0577
    SETDIJ:  cpu time    0.1680: real time    0.1675
    EDDIAG:  cpu time    1.2578: real time    1.2591
  RMM-DIIS:  cpu time    5.9511: real time    5.9584
    ORTHCH:  cpu time    0.0610: real time    0.0605
       DOS:  cpu time    0.0060: real time    0.0061
    CHARGE:  cpu time    0.5729: real time    0.5743
    MIXING:  cpu time    0.0020: real time    0.0019
    --------------------------------------------
[...]
      3     -41.6381      1.00000
      4     -37.5215      1.00000
      5     -37.5201      1.00000
      6     -37.5079      1.00000
      7     -35.7542      1.00000
      8     -35.7407      1.00000
      9     -35.7380      1.00000
     10      -1.5390      1.00000
     11       3.8950      1.00000
     12       4.9783      1.00000
     13       5.8308      1.00000
     14       7.2962      1.00000
     15       8.1853      1.00000
     16       8.5492      1.00000
     17       8.9793      1.00000
     18       9.0771      1.00000
     19       9.5170      1.00000
     20       9.6524      1.00000
     21      10.1999      1.00000
     22      11.4136      0.00000
     23      11.5697      0.00000
     24      11.6876      0.00000
     25      11.7455      0.00000
     26      11.8951      0.00000
     27      12.1697      0.00000
     28      12.3810      0.00000

 k-point   117 :      -0.4000    0.4000    0.2000
  band No.  band energies     occupation 
      1     -41.6409      1.00000
      2     -41.6395      1.00000
      3     -41.6380      1.00000
      4     -37.5216      1.00000
      5     -37.5192      1.00000
      6     -37.5083      1.00000
      7     -35.7528      1.00000
      8     -35.7416      1.00000
      9     -35.7387      1.00000
     10      -1.6353      1.00000
     11       3.9216      1.00000
     12       4.8975      1.00000
     13       5.7986      1.00000
     14       7.4793      1.00000
     15       8.3363      1.00000
     16       8.5613      1.00000
     17       8.9340      1.00000
     18       9.1860      1.00000
     19       9.4971      1.00000
     20       9.5372      1.00000
     21      10.1133      1.00000
     22      11.5547      0.00000
     23      11.5776      0.00000
     24      11.7298      0.00000
     25      11.7930      0.00000
     26      12.1416      0.00000
     27      12.2453      0.00000
     28      12.5041      0.00000

 k-point   118 :      -0.3333    0.4000    0.2000
  band No.  band energies     occupation 
      1     -41.6411      1.00000
      2     -41.6396      1.00000
      3     -41.6380      1.00000
      4     -37.5219      1.00000
      5     -37.5197      1.00000
      6     -37.5079      1.00000
      7     -35.7526      1.00000
      8     -35.7419      1.00000
      9     -35.7384      1.00000
     10      -1.5677      1.00000
     11       4.1222      1.00000
     12       4.5903      1.00000
     13       5.7523      1.00000
     14       7.4229      1.00000
     15       8.4152      1.00000
     16       8.5896      1.00000
     17       9.0050      1.00000
     18       9.1624      1.00000
     19       9.4594      1.00000
     20       9.5568      1.00000
     21      10.0424      1.00000
     22      11.4887      0.00000
     23      11.5823      0.00000
     24      11.7043      0.00000
     25      11.7767      0.00000
     26      12.0727      0.00000
     27      12.1703      0.00000
     28      12.4743      0.00000

 k-point   119 :      -0.3333    0.4667    0.2000
  band No.  band energies     occupation 
      1     -41.6411      1.00000
      2     -41.6397      1.00000
      3     -41.6380      1.00000
      4     -37.5215      1.00000
      5     -37.5204      1.00000
      6     -37.5077      1.00000
      7     -35.7534      1.00000
      8     -35.7414      1.00000
      9     -35.7380      1.00000
     10      -1.5405      1.00000
     11       4.0375      1.00000
     12       4.7957      1.00000
     13       5.7039      1.00000
     14       7.3676      1.00000
     15       8.3078      1.00000
     16       8.5634      1.00000
     17       8.9957      1.00000
     18       9.1160      1.00000
     19       9.4743      1.00000
     20       9.6138      1.00000
     21      10.1455      1.00000
     22      11.4229      0.00000
     23      11.5844      0.00000
     24      11.6458      0.00000
     25      11.7843      0.00000
     26      11.9319      0.00000
     27      12.1404      0.00000
     28      12.4398      0.00000

 k-point   120 :      -0.2667    0.4667    0.2000
  band No.  band energies     occupation 
      1     -41.6411      1.00000
      2     -41.6397      1.00000
      3     -41.6380      1.00000
      4     -37.5217      1.00000
      5     -37.5204      1.00000
      6     -37.5075      1.00000
      7     -35.7530      1.00000
      8     -35.7419      1.00000
      9     -35.7380      1.00000
     10      -1.5312      1.00000
     11       4.2702      1.00000
     12       4.4913      1.00000
     13       5.6743      1.00000
     14       7.3809      1.00000
     15       8.3954      1.00000
     16       8.5748      1.00000
     17       9.0302      1.00000
     18       9.1267      1.00000
     19       9.4468      1.00000
     20       9.6016      1.00000
     21      10.0829      1.00000
     22      11.4300      0.00000
     23      11.5800      0.00000
     24      11.6159      0.00000
     25      11.8264      0.00000
     26      11.9715      0.00000
     27      12.1003      0.00000
     28      12.4532      0.00000


--------------------------------------------------------------------------------------------------------


 soft charge-density along one line, spin component           1
         0         1         2         3         4         5         6         7         8         9
 total charge-density along one line
 
 soft charge-density along one line, spin component           2
         0         1         2         3         4         5         6         7         8         9
 total charge-density along one line
 
 pseudopotential strength for first ion, spin component:           1
-40.501   0.000   0.000   7.027  -0.000  -0.000  -0.000  -0.000
  0.000 -40.501   0.000  -0.000   7.027  -0.000  -0.001  -0.000
  0.000   0.000 -40.501  -0.000  -0.000   7.027  -0.000  -0.001
  7.027  -0.000  -0.000   5.375   0.000   0.000   0.000   0.000
 -0.000   7.027  -0.000   0.000   5.375   0.000  -0.001   0.000
 -0.000  -0.000   7.027   0.000   0.000   5.375   0.000  -0.001
 -0.000  -0.001  -0.000   0.000  -0.001   0.000  -1.281   0.000
 -0.000  -0.000  -0.001   0.000   0.000  -0.001   0.000  -1.281
 -0.000   0.000  -0.000   0.000  -0.000   0.000  -0.000   0.000
 -0.001  -0.000  -0.000  -0.001   0.000   0.000   0.000   0.000
 -0.000   0.000   0.000   0.000  -0.000  -0.000  -0.000  -0.000
 -0.000  -0.001  -0.000   0.000  -0.001   0.000  -1.794   0.000
 -0.000  -0.000  -0.001   0.000   0.000  -0.001   0.000  -1.794
 -0.000   0.000  -0.000   0.000  -0.000   0.000  -0.000   0.000
 -0.001  -0.000  -0.000  -0.001   0.000   0.000   0.000   0.000
 -0.000   0.000   0.000   0.000  -0.000  -0.000  -0.000  -0.000
  0.000   0.000   0.000   0.000   0.000   0.000  -0.000  -0.000
  0.000   0.000   0.000   0.000   0.000   0.000  -0.000  -0.000
 pseudopotential strength for first ion, spin component:           2
-38.525   0.000   0.000   6.119  -0.000  -0.000  -0.000  -0.000
  0.000 -38.525   0.000  -0.000   6.119  -0.000  -0.014  -0.000
  0.000   0.000 -38.525  -0.000  -0.000   6.119  -0.000  -0.014
  6.119  -0.000  -0.000   5.672   0.000   0.000   0.000   0.000
 -0.000   6.119  -0.000   0.000   5.672   0.000   0.005   0.000
 -0.000  -0.000   6.119   0.000   0.000   5.672   0.000   0.005
 -0.000  -0.014  -0.000   0.000   0.005   0.000   0.277   0.000
 -0.000  -0.000  -0.014   0.000   0.000   0.005   0.000   0.277
 -0.000   0.000  -0.000   0.000  -0.000   0.000  -0.000   0.000
 -0.014  -0.000  -0.000   0.005   0.000   0.000   0.000   0.000
 -0.000   0.000   0.000   0.000  -0.000  -0.000  -0.000  -0.000
 -0.000  -0.014  -0.000   0.000   0.005   0.000  -0.259   0.000
 -0.000  -0.000  -0.014   0.000   0.000   0.005   0.000  -0.259
 -0.000   0.000  -0.000   0.000  -0.000   0.000  -0.000   0.000
 -0.014  -0.000  -0.000   0.005   0.000   0.000   0.000   0.000
 -0.000   0.000   0.000   0.000  -0.000  -0.000  -0.000  -0.000
  0.000   0.000   0.000   0.000   0.000   0.000  -0.000  -0.000
  0.000   0.000   0.000   0.000   0.000   0.000  -0.000  -0.000
 total augmentation occupancy for first ion, spin component:           1
  1.993   0.000   0.000  -0.026   0.000   0.000   0.000   0.000   0.000   0.000   0.000   0.000   0.000  -0.000   0.000   0.000
  0.000   1.993   0.000   0.000  -0.026   0.000   0.000  -0.000   0.000   0.000  -0.000   0.000  -0.000   0.000  -0.000  -0.000
  0.000   0.000   1.993   0.000   0.000  -0.026   0.000   0.000   0.000   0.000  -0.000  -0.000   0.000   0.000  -0.000  -0.000
 -0.026   0.000   0.000   0.185  -0.000  -0.000   0.000  -0.000   0.000   0.062   0.000   0.000  -0.000  -0.000  -0.038  -0.000
 -0.000  -0.026   0.000   0.000   0.185   0.000   0.062  -0.000   0.000   0.000   0.000  -0.038   0.000   0.000   0.000  -0.000
  0.000   0.000  -0.026   0.000   0.000   0.185  -0.000   0.062   0.000  -0.000  -0.000   0.000  -0.038  -0.000   0.000   0.000
  0.000   0.000   0.000   0.000   0.062  -0.000   1.413  -0.000   0.000  -0.000   0.000  -1.095   0.000   0.000   0.000  -0.000
 -0.000  -0.000   0.000  -0.000  -0.000   0.062   0.000   1.413  -0.000   0.000   0.000   0.000  -1.095  -0.000   0.000   0.000
 -0.000   0.000  -0.000  -0.000   0.000   0.000  -0.000   0.000   4.435   0.000   0.000   0.000  -0.000  -3.098   0.000   0.000
  0.000   0.000  -0.000   0.062  -0.000  -0.000  -0.000   0.000  -0.000   1.413   0.000   0.000   0.000   0.000  -1.095  -0.000
  0.000  -0.000  -0.000   0.000  -0.000  -0.000  -0.000  -0.000   0.000   0.000   4.435  -0.000   0.000   0.000  -0.000  -3.098
  0.000   0.000  -0.000   0.000  -0.038   0.000  -1.095   0.000   0.000   0.000   0.000   1.930  -0.000   0.000  -0.000  -0.000
 -0.000  -0.000   0.000   0.000   0.000  -0.038   0.000  -1.095  -0.000   0.000   0.000  -0.000   1.930   0.000  -0.000  -0.000
  0.000   0.000  -0.000   0.000  -0.000   0.000  -0.000  -0.000  -3.098   0.000   0.000  -0.000   0.000   2.881   0.000   0.000
  0.000  -0.000  -0.000  -0.038   0.000  -0.000   0.000   0.000   0.000  -1.095  -0.000  -0.000  -0.000   0.000   1.930   0.000
  0.000  -0.000  -0.000  -0.000  -0.000   0.000  -0.000   0.000   0.000  -0.000  -3.098  -0.000  -0.000   0.000   0.000   2.881
  0.000   0.000   0.000  -0.000  -0.000  -0.000   0.000   0.000   0.000   0.000  -0.000   0.000   0.000   0.000   0.000   0.000
 -0.000  -0.000  -0.000  -0.000  -0.000  -0.000  -0.000   0.000   0.000   0.000   0.000   0.000   0.000   0.000  -0.000   0.000
 total augmentation occupancy for first ion, spin component:           2
 -0.002   0.000   0.000  -0.007   0.000   0.000   0.000   0.000   0.000  -0.005   0.000   0.000   0.000   0.000   0.005  -0.000
  0.000  -0.002   0.000   0.000  -0.007   0.000  -0.005   0.000   0.000   0.000   0.000   0.005  -0.000   0.000  -0.000  -0.000
  0.000   0.000  -0.002   0.000   0.000  -0.007  -0.000  -0.005  -0.000   0.000  -0.000  -0.000   0.005   0.000  -0.000   0.000
 -0.007   0.000   0.000   0.013  -0.000   0.000  -0.000  -0.000   0.000   0.072   0.000   0.000   0.000   0.000  -0.047  -0.000
  0.000  -0.007   0.000  -0.000   0.013   0.000   0.072  -0.000  -0.000  -0.000   0.000  -0.047   0.000   0.000   0.000  -0.000
  0.000   0.000  -0.007   0.000   0.000   0.013   0.000   0.072   0.000  -0.000  -0.000   0.000  -0.047   0.000   0.000   0.000
  0.000  -0.005  -0.000   0.000   0.072  -0.000   0.730   0.000  -0.000   0.000   0.000   0.130  -0.000   0.000  -0.000   0.000
  0.000   0.000  -0.005  -0.000  -0.000   0.072   0.000   0.730   0.000   0.000  -0.000  -0.000   0.130  -0.000   0.000  -0.000
 -0.000   0.000   0.000   0.000  -0.000   0.000   0.000  -0.000   3.029   0.000   0.000  -0.000   0.000  -1.283  -0.000   0.000
 -0.005   0.000   0.000   0.072  -0.000  -0.000   0.000   0.000   0.000   0.730   0.000  -0.000  -0.000  -0.000   0.130  -0.000
  0.000  -0.000  -0.000   0.000   0.000  -0.000  -0.000  -0.000   0.000   0.000   3.029   0.000   0.000  -0.000  -0.000  -1.283
  0.000   0.005   0.000   0.000  -0.047   0.000   0.130  -0.000   0.000   0.000   0.000  -0.552   0.000  -0.000   0.000  -0.000
  0.000   0.000   0.005   0.000   0.000  -0.047  -0.000   0.130  -0.000  -0.000   0.000   0.000  -0.552   0.000   0.000   0.000
 -0.000   0.000  -0.000   0.000   0.000   0.000   0.000   0.000  -1.283  -0.000   0.000  -0.000  -0.000   0.508  -0.000   0.000
  0.005   0.000  -0.000  -0.047   0.000   0.000   0.000  -0.000  -0.000   0.130  -0.000  -0.000   0.000   0.000  -0.552   0.000
 -0.000   0.000   0.000  -0.000  -0.000   0.000   0.000   0.000   0.000   0.000  -1.283   0.000   0.000   0.000   0.000   0.508
  0.000   0.000  -0.000  -0.000   0.000   0.000   0.000   0.000  -0.000  -0.000  -0.000  -0.000   0.000  -0.000  -0.000   0.000
 -0.000   0.000  -0.000   0.000   0.000  -0.000   0.000   0.000  -0.000   0.000   0.000   0.000  -0.000   0.000   0.000  -0.000


------------------------ aborting loop because EDIFF is reached ----------------------------------------


 


 total charge     
 
# of ion     s       p       d       tot
----------------------------------------
  1        0.353   6.322   5.149  11.824
  2        0.313   6.329   5.315  11.956
  3        0.314   6.362   6.333  13.009
  4        1.150   1.514   0.154   2.818
------------------------------------------------
tot        2.130  20.527  16.951  39.608
 


 magnetization (x)
 
# of ion     s       p       d       tot
----------------------------------------
  1        0.019   0.022   2.699   2.740
  2       -0.007  -0.021  -0.635  -0.664
  3        0.004   0.000   0.835   0.840
  4        0.023   0.016  -0.006   0.033
------------------------------------------------
tot        0.040   0.017   2.893   2.949
 
    CHARGE:  cpu time    0.5759: real time    0.5761
    FORLOC:  cpu time    0.0030: real time    0.0031
    FORNL :  cpu time    1.7137: real time    1.7186
    STRESS:  cpu time    4.5623: real time    4.5713
    FORCOR:  cpu time    0.0580: real time    0.0597
    FORHAR:  cpu time    0.0090: real time    0.0083
    MIXING:  cpu time    0.0020: real time    0.0026
    OFIELD:  cpu time    0.0000: real time    0.0000

  FORCE on cell =-STRESS in cart. coord.  units (eV):
  Direction    XX          YY          ZZ          XY          YZ          ZX
  --------------------------------------------------------------------------------------
  Alpha Z   310.87778   310.87778   310.87778
  Ewald   -1629.49034 -1629.49034 -1629.49034    -0.00000    -0.00000     0.00000
  Hartree   550.05927   550.05927   550.05927     0.00000     0.00000     0.00000
  E(xc)    -265.70686  -265.70686  -265.70686     0.00001     0.00001     0.00001
  Local     295.78234   295.78234   295.78234     0.00022     0.00022     0.00022
  n-local   -72.23204   -72.10432   -72.25974    -1.95503     1.77612    -1.73436
  augment   334.44360   334.44360   334.44359    -0.00019    -0.00019    -0.00019
  Kinetic   476.93721   477.52281   474.21367    -1.84841     1.22842    -1.23192
  Fock        0.00000     0.00000     0.00000     0.00000     0.00000     0.00000
  -------------------------------------------------------------------------------------
  Total      -0.00835    -0.00835    -0.00835     0.00000    -0.00000    -0.00000
  in kB      -0.28659    -0.28659    -0.28659     0.00000    -0.00000    -0.00000
  external pressure =       -0.29 kB  Pullay stress =        0.00 kB


 VOLUME and BASIS-vectors are now :
 -----------------------------------------------------------------------------
  energy-cutoff  :      500.00
  volume of cell :       46.68
      direct lattice vectors                 reciprocal lattice vectors
     0.000000000  2.857845913  2.857845913    -0.174956948  0.174956948  0.174956948
     2.857845913  0.000000000  2.857845913     0.174956948 -0.174956948  0.174956948
     2.857845913  2.857845913  0.000000000     0.174956948  0.174956948 -0.174956948

  length of vectors
     4.041604450  4.041604450  4.041604450     0.303034324  0.303034324  0.303034324


 FORCES acting on ions
    electron-ion (+dipol)            ewald-force                    non-local-force                 convergence-correction
 -----------------------------------------------------------------------------------------------
   0.405E-07 0.405E-07 0.500E-07   -.161E-13 0.105E-13 0.428E-13   0.867E-18 -.867E-18 0.867E-18   0.113E-08 0.113E-08 0.113E-08
   -.349E-06 -.349E-06 -.407E-06   0.100E-13 -.214E-13 -.231E-13   -.694E-17 0.694E-17 0.000E+00   -.172E-09 -.172E-09 -.172E-09
   0.533E-07 0.533E-07 0.132E-06   -.338E-14 0.197E-13 -.348E-13   0.555E-16 0.555E-16 0.694E-16   -.122E-08 -.122E-08 -.122E-08
   -.444E-07 -.444E-07 -.154E-07   0.985E-14 -.112E-13 0.142E-13   0.694E-17 0.867E-17 0.434E-17   0.399E-11 0.399E-11 0.399E-11
 -----------------------------------------------------------------------------------------------
   -.300E-06 -.300E-06 -.240E-06   0.389E-15 -.236E-14 -.904E-15   0.564E-16 0.703E-16 0.746E-16   -.253E-09 -.252E-09 -.252E-09
 
 
 POSITION                                       TOTAL-FORCE (eV/Angst)
 -----------------------------------------------------------------------------------
      0.00000      0.00000      0.00000        -0.000000     -0.000000     -0.000000
      1.42892      1.42892      1.42892         0.000000     -0.000000      0.000000
      4.28677      4.28677      4.28677         0.000000      0.000000      0.000000
      2.85785      2.85785      2.85785        -0.000000     -0.000000     -0.000000
 -----------------------------------------------------------------------------------
    total drift:                               -0.000000     -0.000000     -0.000000


--------------------------------------------------------------------------------------------------------



  FREE ENERGIE OF THE ION-ELECTRON SYSTEM (eV)
  ---------------------------------------------------
  free  energy   TOTEN  =       -31.12591240 eV

  energy  without entropy=      -31.12150051  energy(sigma->0) =      -31.12370646
 


--------------------------------------------------------------------------------------------------------


    POTLOK:  cpu time    0.2250: real time    0.2247


--------------------------------------------------------------------------------------------------------


     LOOP+:  cpu time  187.2465: real time  187.6670
    4ORBIT:  cpu time    0.0000: real time    0.0000
 


 total charge     
 
# of ion     s       p       d       tot
----------------------------------------
  1        0.353   6.322   5.149  11.824
  2        0.313   6.329   5.315  11.956
  3        0.314   6.362   6.333  13.009
  4        1.150   1.514   0.154   2.818
------------------------------------------------
tot        2.130  20.527  16.951  39.608
 


 magnetization (x)
 
# of ion     s       p       d       tot
----------------------------------------
  1        0.019   0.022   2.699   2.740
  2       -0.007  -0.021  -0.635  -0.664
  3        0.004   0.000   0.835   0.840
  4        0.023   0.016  -0.006   0.033
------------------------------------------------
tot        0.040   0.017   2.893   2.949
 

 total amount of memory used by VASP on root node   145146. kBytes
========================================================================

   base      :      30000. kBytes
   nonl-proj :      64568. kBytes
   fftplans  :       8118. kBytes
   grid      :       7070. kBytes
   one-center:        124. kBytes
   wavefun   :      35266. kBytes
 
  
  
 General timing and accounting informations for this job:
 ========================================================
  
                  Total CPU time used (sec):      189.528
                            User time (sec):      186.755
                          System time (sec):        2.774
                         Elapsed time (sec):      190.339
  
                   Maximum memory used (kb):      285128.
                   Average memory used (kb):           0.
  
                          Minor page faults:       163703
                          Major page faults:       751228
                 Voluntary context switches:         1128
