OPT                                     
   2.87000000000000     
     0.500000    0.500000    0.500000
    -0.500000    0.500000    0.500000
    -0.500000   -0.500000    0.500000
   Fe
     1
Direct
  0.000000  0.000000  0.000000
 
   28   28   28
 0.24347694163E+03 0.23617176519E+03 0.21532957819E+03 0.18389865361E+03 0.14620905930E+03
 0.10715202521E+03 0.71464865011E+02 0.42793245474E+02 0.23042367436E+02 0.11895837861E+02
 0.71494517498E+01 0.54521747641E+01 0.45477639907E+01 0.40937252519E+01 0.39507650568E+01
 0.40937252519E+01 0.45477639907E+01 0.54521747641E+01 0.71494517498E+01 0.11895837861E+02
 0.23042367436E+02 0.42793245474E+02 0.71464865011E+02 0.10715202521E+03 0.14620905930E+03
 0.18389865361E+03 0.21532957819E+03 0.23617176519E+03 0.23617456178E+03 0.22438484283E+03
 0.20011665325E+03 0.16680620506E+03 0.12899931933E+03 0.91551119188E+02 0.58829719953E+02
 0.33865325366E+02 0.17767344060E+02 0.94820917839E+01 0.63116230120E+01 0.50442860528E+01
 0.43141223158E+01 0.39880586818E+01 0.39402094524E+01 0.41703103212E+01 0.47482414953E+01
 0.57963281427E+01 0.80260763432E+01 0.14238047053E+02 0.27518251275E+02 0.49529886028E+02
 0.79910738854E+02 0.11620524329E+03 0.15442039088E+03 0.18976596139E+03 0.21751035221E+03
 0.23376177019E+03 0.21532806101E+03 0.20011566156E+03 0.17412123243E+03 0.14109151584E+03
 0.10556596207E+03 0.72074905417E+02 0.44339908181E+02 0.24538091996E+02 0.12833842152E+02
 0.75148312088E+01 0.55884585114E+01 0.46100046841E+01 0.40785858691E+01 0.38626993718E+01
 0.39077887458E+01 0.42066301188E+01 0.48824420610E+01 0.60394049983E+01 0.87321172606E+01
 0.15877427096E+02 0.30137071569E+02 0.52649130918E+02 0.82557323140E+02 0.11712640855E+03
 0.15230749509E+03 0.18349421388E+03 0.20633832166E+03 0.21750948169E+03 0.18390322818E+03
 0.16680426123E+03 0.14109431299E+03 0.11057952227E+03 0.79535352987E+02 0.51893060896E+02
 0.30480326310E+02 0.16445799281E+02 0.90848925909E+01 0.61646637674E+01 0.49432052631E+01
 0.42047424186E+01 0.38527395682E+01 0.37303597912E+01 0.38480292401E+01 0.41944559566E+01
 0.49250723490E+01 0.61353935969E+01 0.90333490941E+01 0.16338454848E+02 0.30260537428E+02
 0.51498256167E+02 0.78938401006E+02 0.10980855491E+03 0.14026881706E+03 0.16610245345E+03
 0.18349713221E+03 0.18976420061E+03 0.14620746168E+03 0.12899799133E+03 0.10556609129E+03
 0.79532295402E+02 0.54640657853E+02 0.33935897123E+02 0.19226410074E+02 0.10627746222E+02
 0.67708075579E+01 0.52427172682E+01 0.43635928606E+01 0.38679600807E+01 0.36379069863E+01
 0.36019240622E+01 0.37545662554E+01 0.41329103519E+01 0.48618373579E+01 0.60540365640E+01
 0.88041415139E+01 0.15489252895E+02 0.27875471259E+02 0.46377019781E+02 0.69805442240E+02
 0.95601185602E+02 0.12030820086E+03 0.14026571109E+03 0.15230762431E+03 0.15441911127E+03
 0.10715446670E+03 0.91551426727E+02 0.72075706982E+02 0.51895242417E+02 0.33936870018E+02
 0.20266364413E+02 0.11594613945E+02 0.72610333949E+01 0.54821303332E+01 0.45057726659E+01
 0.39072912105E+01 0.35838048077E+01 0.34538570451E+01 0.34661701557E+01 0.36409239981E+01
 0.40144638228E+01 0.47059556026E+01 0.57961767889E+01 0.81097517239E+01 0.13570097693E+02
 0.23585415277E+02 0.38403297961E+02 0.56935685743E+02 0.76974401878E+02 0.95602110111E+02
 0.10981062323E+03 0.11712708894E+03 0.11620548099E+03 0.71464617766E+02 0.58827476419E+02
 0.44341249867E+02 0.30476169382E+02 0.19227550783E+02 0.11592560541E+02 0.74544430799E+01
 0.56155392065E+01 0.46082052815E+01 0.39431729177E+01 0.35610394864E+01 0.33568035293E+01
 0.32920151961E+01 0.33318358458E+01 0.35077822112E+01 0.38542880497E+01 0.44713366481E+01
 0.54157669557E+01 0.71564144166E+01 0.11104877596E+02 0.18395636512E+02 0.29196563134E+02
 0.42634959433E+02 0.56933645578E+02 0.69806582949E+02 0.78934230838E+02 0.82558664826E+02
 0.79908508560E+02 0.42795735551E+02 0.33865500346E+02 0.24538809352E+02 0.16447844757E+02
 0.10628719320E+02 0.72609706810E+01 0.56176163381E+01 0.46427375593E+01 0.39676670683E+01
 0.35488477981E+01 0.33021382249E+01 0.31808448459E+01 0.31486694547E+01 0.32045141511E+01
 0.33628197507E+01 0.36702939041E+01 0.41851851821E+01 0.49751509440E+01 0.61930155240E+01
 0.86951476824E+01 0.13385214035E+02 0.20421318991E+02 0.29198653506E+02 0.38403275119E+02
 0.46378041266E+02 0.51500374974E+02 0.52649969450E+02 0.49530170725E+02 0.23039611267E+02
 0.17767187704E+02 0.12832807776E+02 0.90829855133E+01 0.67696490058E+01 0.54823290796E+01
 0.46059009760E+01 0.39678444767E+01 0.35457098699E+01 0.32763750718E+01 0.31185108882E+01
 0.30413344823E+01 0.30287961603E+01 0.30846731477E+01 0.32213489379E+01 0.34761100825E+01
 0.38866148650E+01 0.45130906071E+01 0.53802587133E+01 0.67954383077E+01 0.93957195010E+01
 0.13385364193E+02 0.18393332206E+02 0.23585641274E+02 0.27874312707E+02 0.30258603100E+02
 0.30136037193E+02 0.27518122170E+02 0.11897779928E+02 0.94828876545E+01 0.75151530054E+01
 0.61673361460E+01 0.52431907424E+01 0.45062609978E+01 0.39447465541E+01 0.35494013700E+01
 0.32756769037E+01 0.30987873764E+01 0.29896632242E+01 0.29361075058E+01 0.29314544137E+01
 0.29795232494E+01 0.30919407242E+01 0.32899148136E+01 0.36049957290E+01 0.40698774587E+01
 0.47114889207E+01 0.55457401259E+01 0.67947128887E+01 0.86956588563E+01 0.11106437992E+02
 0.13570588551E+02 0.15489677983E+02 0.16341011497E+02 0.15877627716E+02 0.14238775604E+02
 0.71475185358E+01 0.63110494516E+01 0.55881528957E+01 0.49407116323E+01 0.43630476000E+01
 0.39069077798E+01 0.35593921849E+01 0.33017243905E+01 0.31191292243E+01 0.29897595616E+01
 0.29063947119E+01 0.28625629057E+01 0.28580845866E+01 0.28946996781E+01 0.29802485671E+01
 0.31277238134E+01 0.33567362895E+01 0.36887995072E+01 0.41404333212E+01 0.47115918215E+01
 0.53808770493E+01 0.61925951262E+01 0.71547671152E+01 0.81093748566E+01 0.88035962533E+01
 0.90308489000E+01 0.87318116449E+01 0.80255093462E+01 0.54542720193E+01 0.50448489917E+01
 0.46103629329E+01 0.42071518635E+01 0.38685403572E+01 0.35841300532E+01 0.33585215537E+01
 0.31812088152E+01 0.30407642524E+01 0.29359418933E+01 0.28626176330E+01 0.28207065983E+01
 0.28100835727E+01 0.28325633133E+01 0.28918261505E+01 0.29956690157E+01 0.31553785310E+01
 0.33835301846E+01 0.36888607978E+01 0.40697302540E+01 0.45125476280E+01 0.49755389035E+01
 0.54174982201E+01 0.57965179161E+01 0.60546652273E+01 0.61379003630E+01 0.60398844230E+01
 0.57969768086E+01 0.45455549599E+01 0.43134255389E+01 0.40781134481E+01 0.38502638183E+01
 0.36372955727E+01 0.34535153705E+01 0.32902728454E+01 0.31482781908E+01 0.30293432988E+01
 0.29316121608E+01 0.28580282055E+01 0.28100851303E+01 0.27886040006E+01 0.27941395617E+01
 0.28287248390E+01 0.28964112003E+01 0.30031654415E+01 0.31553810891E+01 0.33566799084E+01
 0.36051524756E+01 0.38871620035E+01 0.41847949186E+01 0.44695942975E+01 0.47056129274E+01
 0.48612259443E+01 0.49225975996E+01 0.48819696400E+01 0.47475437179E+01 0.40958311684E+01
 0.39887001286E+01 0.38631848392E+01 0.37328590724E+01 0.36025613869E+01 0.34665040638E+01
 0.33335731529E+01 0.32048946257E+01 0.30841388300E+01 0.29793688257E+01 0.28947670113E+01
 0.28325558283E+01 0.27941456651E+01 0.27800752887E+01 0.27911656687E+01 0.28290564946E+01
 0.28964183041E+01 0.29956617966E+01 0.31277845833E+01 0.32897417163E+01 0.34755485139E+01
 0.36706506543E+01 0.38560121167E+01 0.40147815834E+01 0.41334992898E+01 0.41968581825E+01
 0.42069944102E+01 0.41708657752E+01 0.39487688966E+01 0.39397043515E+01 0.39074157205E+01
 0.38455975055E+01 0.37539580487E+01 0.36406090269E+01 0.35060675002E+01 0.33624678123E+01
 0.32219043278E+01 0.30921055211E+01 0.29801811575E+01 0.28918333193E+01 0.28287182740E+01
 0.27911667949E+01 0.27786913487E+01 0.27911667949E+01 0.28287182740E+01 0.28918333193E+01
 0.29801811575E+01 0.30921055211E+01 0.32219043278E+01 0.33624678123E+01 0.35060675002E+01
 0.36406090269E+01 0.37539580487E+01 0.38455975055E+01 0.39074157205E+01 0.39397043515E+01
 0.40958311684E+01 0.41708657752E+01 0.42069944102E+01 0.41968581825E+01 0.41334992898E+01
 0.40147815834E+01 0.38560121167E+01 0.36706506543E+01 0.34755485139E+01 0.32897417163E+01
 0.31277845833E+01 0.29956617966E+01 0.28964183041E+01 0.28290564946E+01 0.27911656687E+01
 0.27800752887E+01 0.27941456651E+01 0.28325558283E+01 0.28947670113E+01 0.29793688257E+01
 0.30841388300E+01 0.32048946257E+01 0.33335731529E+01 0.34665040638E+01 0.36025613869E+01
 0.37328590724E+01 0.38631848392E+01 0.39887001286E+01 0.45455549599E+01 0.47475437179E+01
 0.48819696400E+01 0.49225975996E+01 0.48612259443E+01 0.47056129274E+01 0.44695942975E+01
 0.41847949186E+01 0.38871620035E+01 0.36051524756E+01 0.33566799084E+01 0.31553810891E+01
 0.30031654415E+01 0.28964112003E+01 0.28287248390E+01 0.27941395617E+01 0.27886040006E+01
 0.28100851303E+01 0.28580282055E+01 0.29316121608E+01 0.30293432988E+01 0.31482781908E+01
 0.32902728454E+01 0.34535153705E+01 0.36372955727E+01 0.38502638183E+01 0.40781134481E+01
 0.43134255389E+01 0.54542720193E+01 0.57969768086E+01 0.60398844230E+01 0.61379003630E+01
 0.60546652273E+01 0.57965179161E+01 0.54174982201E+01 0.49755389035E+01 0.45125476280E+01
 0.40697302540E+01 0.36888607978E+01 0.33835301846E+01 0.31553785310E+01 0.29956690157E+01
 0.28918261505E+01 0.28325633133E+01 0.28100835727E+01 0.28207065983E+01 0.28626176330E+01
 0.29359418933E+01 0.30407642524E+01 0.31812088152E+01 0.33585215537E+01 0.35841300532E+01
 0.38685403572E+01 0.42071518635E+01 0.46103629329E+01 0.50448489917E+01 0.71475185358E+01
 0.80255093462E+01 0.87318116449E+01 0.90308489000E+01 0.88035962533E+01 0.81093748566E+01
 0.71547671152E+01 0.61925951262E+01 0.53808770493E+01 0.47115918215E+01 0.41404333212E+01
 0.36887995072E+01 0.33567362895E+01 0.31277238134E+01 0.29802485671E+01 0.28946996781E+01
 0.28580845866E+01 0.28625629057E+01 0.29063947119E+01 0.29897595616E+01 0.31191292243E+01
 0.33017243905E+01 0.35593921849E+01 0.39069077798E+01 0.43630476000E+01 0.49407116323E+01
 0.55881528957E+01 0.63110494516E+01 0.11897779928E+02 0.14238775604E+02 0.15877627716E+02
 0.16341011497E+02 0.15489677983E+02 0.13570588551E+02 0.11106437992E+02 0.86956588563E+01
 0.67947128887E+01 0.55457401259E+01 0.47114889207E+01 0.40698774587E+01 0.36049957290E+01
 0.32899148136E+01 0.30919407242E+01 0.29795232494E+01 0.29314544137E+01 0.29361075058E+01
 0.29896632242E+01 0.30987873764E+01 0.32756769037E+01 0.35494013700E+01 0.39447465541E+01
 0.45062609978E+01 0.52431907424E+01 0.61673361460E+01 0.75151530054E+01 0.94828876545E+01
 0.23039611267E+02 0.27518122170E+02 0.30136037193E+02 0.30258603100E+02 0.27874312707E+02
 0.23585641274E+02 0.18393332206E+02 0.13385364193E+02 0.93957195010E+01 0.67954383077E+01
 0.53802587133E+01 0.45130906071E+01 0.38866148650E+01 0.34761100825E+01 0.32213489379E+01
 0.30846731477E+01 0.30287961603E+01 0.30413344823E+01 0.31185108882E+01 0.32763750718E+01
 0.35457098699E+01 0.39678444767E+01 0.46059009760E+01 0.54823290796E+01 0.67696490058E+01
 0.90829855133E+01 0.12832807776E+02 0.17767187704E+02 0.42795735551E+02 0.49530170725E+02
 0.52649969450E+02 0.51500374974E+02 0.46378041266E+02 0.38403275119E+02 0.29198653506E+02
 0.20421318991E+02 0.13385214035E+02 0.86951476824E+01 0.61930155240E+01 0.49751509440E+01
 0.41851851821E+01 0.36702939041E+01 0.33628197507E+01 0.32045141511E+01 0.31486694547E+01
 0.31808448459E+01 0.33021382249E+01 0.35488477981E+01 0.39676670683E+01 0.46427375593E+01
 0.56176163381E+01 0.72609706810E+01 0.10628719320E+02 0.16447844757E+02 0.24538809352E+02
 0.33865500346E+02 0.71464617766E+02 0.79908508560E+02 0.82558664826E+02 0.78934230838E+02
 0.69806582949E+02 0.56933645578E+02 0.42634959433E+02 0.29196563134E+02 0.18395636512E+02
 0.11104877596E+02 0.71564144166E+01 0.54157669557E+01 0.44713366481E+01 0.38542880497E+01
 0.35077822112E+01 0.33318358458E+01 0.32920151961E+01 0.33568035293E+01 0.35610394864E+01
 0.39431729177E+01 0.46082052815E+01 0.56155392065E+01 0.74544430799E+01 0.11592560541E+02
 0.19227550783E+02 0.30476169382E+02 0.44341249867E+02 0.58827476419E+02 0.10715446670E+03
 0.11620548099E+03 0.11712708894E+03 0.10981062323E+03 0.95602110111E+02 0.76974401878E+02
 0.56935685743E+02 0.38403297961E+02 0.23585415277E+02 0.13570097693E+02 0.81097517239E+01
 0.57961767889E+01 0.47059556026E+01 0.40144638228E+01 0.36409239981E+01 0.34661701557E+01
 0.34538570451E+01 0.35838048077E+01 0.39072912105E+01 0.45057726659E+01 0.54821303332E+01
 0.72610333949E+01 0.11594613945E+02 0.20266364413E+02 0.33936870018E+02 0.51895242417E+02
 0.72075706982E+02 0.91551426727E+02 0.14620746168E+03 0.15441911127E+03 0.15230762431E+03
 0.14026571109E+03 0.12030820086E+03 0.95601185602E+02 0.69805442240E+02 0.46377019781E+02
 0.27875471259E+02 0.15489252895E+02 0.88041415139E+01 0.60540365640E+01 0.48618373579E+01
 0.41329103519E+01 0.37545662554E+01 0.36019240622E+01 0.36379069863E+01 0.38679600807E+01
 0.43635928606E+01 0.52427172682E+01 0.67708075579E+01 0.10627746222E+02 0.19226410074E+02
 0.33935897123E+02 0.54640657853E+02 0.79532295402E+02 0.10556609129E+03 0.12899799133E+03
 0.18390322818E+03 0.18976420061E+03 0.18349713221E+03 0.16610245345E+03 0.14026881706E+03
 0.10980855491E+03 0.78938401006E+02 0.51498256167E+02 0.30260537428E+02 0.16338454848E+02
 0.90333490941E+01 0.61353935969E+01 0.49250723490E+01 0.41944559566E+01 0.38480292401E+01
 0.37303597912E+01 0.38527395682E+01 0.42047424186E+01 0.49432052631E+01 0.61646637674E+01
 0.90848925909E+01 0.16445799281E+02 0.30480326310E+02 0.51893060896E+02 0.79535352987E+02
 0.11057952227E+03 0.14109431299E+03 0.16680426123E+03 0.21532806101E+03 0.21750948169E+03
 0.20633832166E+03 0.18349421388E+03 0.15230749509E+03 0.11712640855E+03 0.82557323140E+02
 0.52649130918E+02 0.30137071569E+02 0.15877427096E+02 0.87321172606E+01 0.60394049983E+01
 0.48824420610E+01 0.42066301188E+01 0.39077887458E+01 0.38626993718E+01 0.40785858691E+01
 0.46100046841E+01 0.55884585114E+01 0.75148312088E+01 0.12833842152E+02 0.24538091996E+02
 0.44339908181E+02 0.72074905417E+02 0.10556596207E+03 0.14109151584E+03 0.17412123243E+03
 0.20011566156E+03 0.23617456178E+03 0.23376177019E+03 0.21751035221E+03 0.18976596139E+03
 0.15442039088E+03 0.11620524329E+03 0.79910738854E+02 0.49529886028E+02 0.27518251275E+02
 0.14238047053E+02 0.80260763432E+01 0.57963281427E+01 0.47482414953E+01 0.41703103212E+01
 0.39402094524E+01 0.39880586818E+01 0.43141223158E+01 0.50442860528E+01 0.63116230120E+01
 0.94820917839E+01 0.17767344060E+02 0.33865325366E+02 0.58829719953E+02 0.91551119188E+02
 0.12899931933E+03 0.16680620506E+03 0.20011665325E+03 0.22438484283E+03 0.23617308683E+03
 0.23376177510E+03 0.21751008599E+03 0.18976419797E+03 0.15442149938E+03 0.11620620250E+03
 0.79909965314E+02 0.49529772581E+02 0.27518017288E+02 0.14238359047E+02 0.80260679825E+01
 0.57962896148E+01 0.47482441257E+01 0.41703115926E+01 0.39402298948E+01 0.39880245920E+01
 0.43141467272E+01 0.50442481995E+01 0.63116700465E+01 0.94820926785E+01 0.17767671105E+02
 0.33865521568E+02 0.58829118724E+02 0.91550980894E+02 0.12899823686E+03 0.16680400183E+03
 0.20011637638E+03 0.22438440856E+03 0.22438571930E+03 0.21750821409E+03 0.19790922688E+03
 0.16843915052E+03 0.13325145109E+03 0.97038792804E+02 0.64234330375E+02 0.38190749257E+02
 0.20536300975E+02 0.10799818484E+02 0.67667700174E+01 0.52674125304E+01 0.44221038955E+01
 0.40073647961E+01 0.38716656377E+01 0.40073528526E+01 0.44220827538E+01 0.52674587142E+01
 0.67667117481E+01 0.10800080672E+02 0.20535742839E+02 0.38190487621E+02 0.64234145967E+02
 0.97039822353E+02 0.13325363591E+03 0.16843966509E+03 0.19790928914E+03 0.21750864712E+03
 0.20011582599E+03 0.18976456727E+03 0.16843863821E+03 0.13932648575E+03 0.10659996348E+03
 0.74640922886E+02 0.47253493475E+02 0.26916423189E+02 0.14276354552E+02 0.81170724932E+01
 0.58109217644E+01 0.47387450386E+01 0.41122335133E+01 0.38337021899E+01 0.37903357769E+01
 0.39891675448E+01 0.44758299134E+01 0.53859203626E+01 0.70616510779E+01 0.11582251176E+02
 0.21818458495E+02 0.39506165933E+02 0.64660646323E+02 0.95382661105E+02 0.12827363576E+03
 0.15908009770E+03 0.18349664454E+03 0.19790894574E+03 0.16680681228E+03 0.15441884092E+03
 0.13325519333E+03 0.10659889304E+03 0.78386348291E+02 0.52432602222E+02 0.31647749422E+02
 0.17494251727E+02 0.96727697052E+01 0.63883042195E+01 0.50549171764E+01 0.42544792906E+01
 0.38376288074E+01 0.36615485386E+01 0.36956394287E+01 0.39311506027E+01 0.44594942635E+01
 0.53811360433E+01 0.70943047814E+01 0.11566927063E+02 0.21275892540E+02 0.37525372759E+02
 0.60061730674E+02 0.86938152457E+02 0.11496431753E+03 0.14026637061E+03 0.15908220848E+03
 0.16843797320E+03 0.12899882824E+03 0.11620339513E+03 0.97040528226E+02 0.74637873140E+02
 0.52436410561E+02 0.33390448257E+02 0.19423601599E+02 0.10938811541E+02 0.69356047939E+01
 0.53229022912E+01 0.44057964431E+01 0.38657543059E+01 0.35912237693E+01 0.35069272195E+01
 0.35797007473E+01 0.38407375751E+01 0.43629358434E+01 0.52547632250E+01 0.68298367774E+01
 0.10751346962E+02 0.19059751219E+02 0.32741670028E+02 0.51425753980E+02 0.73315038479E+02
 0.95603289600E+02 0.11496077152E+03 0.12827490930E+03 0.13325174620E+03 0.91551836788E+02
 0.79909510167E+02 0.64235005888E+02 0.47253912137E+02 0.31645847828E+02 0.19421839394E+02
 0.11427375488E+02 0.72819353036E+01 0.55098258537E+01 0.45286279123E+01 0.39032964088E+01
 0.35555641525E+01 0.33874519210E+01 0.33598089613E+01 0.34546306815E+01 0.37153758102E+01
 0.42009894367E+01 0.50173110613E+01 0.63402478541E+01 0.93762356235E+01 0.15758648128E+02
 0.26240919379E+02 0.40470650909E+02 0.56933859498E+02 0.73316473343E+02 0.86940197989E+02
 0.95382710128E+02 0.97040217938E+02 0.58827831334E+02 0.49531001140E+02 0.38190635713E+02
 0.26915941661E+02 0.17496396101E+02 0.10940669616E+02 0.72818337506E+01 0.55785919734E+01
 0.45954330384E+01 0.39359036247E+01 0.35369499584E+01 0.33161754981E+01 0.32193038481E+01
 0.32228837553E+01 0.33246218175E+01 0.35654707713E+01 0.39927173716E+01 0.46985680243E+01
 0.57507390186E+01 0.78287109791E+01 0.12169042644E+02 0.19378717312E+02 0.29197333513E+02
 0.40471266650E+02 0.51423743439E+02 0.60060319649E+02 0.64660018805E+02 0.64234467332E+02
 0.33865602578E+02 0.27518039945E+02 0.20535053056E+02 0.14277672625E+02 0.96695731066E+01
 0.69347107544E+01 0.55088719961E+01 0.45964276262E+01 0.39471182045E+01 0.35313712983E+01
 0.32745712103E+01 0.31372327850E+01 0.30802018860E+01 0.30993207106E+01 0.31961784832E+01
 0.34045052838E+01 0.37622243689E+01 0.43360157347E+01 0.51622794441E+01 0.64689901145E+01
 0.90309269498E+01 0.13385812945E+02 0.19377441185E+02 0.26241560719E+02 0.32742486596E+02
 0.37528102485E+02 0.39505589563E+02 0.38191482597E+02 0.17766620315E+02 0.14238980669E+02
 0.10800166864E+02 0.81164988156E+01 0.63907950900E+01 0.53245187373E+01 0.45287671030E+01
 0.39356289870E+01 0.35306381495E+01 0.32620952654E+01 0.30967066359E+01 0.30029465341E+01
 0.29698874294E+01 0.29910082032E+01 0.30775965884E+01 0.32462160281E+01 0.35324853655E+01
 0.39718602603E+01 0.46085073308E+01 0.54604863730E+01 0.67950478477E+01 0.90317524307E+01
 0.12169421323E+02 0.15758845243E+02 0.19058109052E+02 0.21273988575E+02 0.21818100171E+02
 0.20535485110E+02 0.94831641104E+01 0.80252086257E+01 0.67667294391E+01 0.58113469869E+01
 0.50527121794E+01 0.44039524561E+01 0.39033896192E+01 0.35369810236E+01 0.32755754899E+01
 0.30964695989E+01 0.29779743549E+01 0.29098554385E+01 0.28848123606E+01 0.29041715647E+01
 0.29730083115E+01 0.31048441426E+01 0.33197439678E+01 0.36447439487E+01 0.41044913555E+01
 0.47114417632E+01 0.54605047959E+01 0.64681163230E+01 0.78283280132E+01 0.93760197622E+01
 0.10752997364E+02 0.11568740143E+02 0.11582532974E+02 0.10800260396E+02 0.63107367438E+01
 0.57972821921E+01 0.52675260020E+01 0.47383999046E+01 0.42567004162E+01 0.38676207534E+01
 0.35554794064E+01 0.33162021503E+01 0.31362295803E+01 0.30031881183E+01 0.29098438581E+01
 0.28514628753E+01 0.28278488017E+01 0.28393412147E+01 0.28893944446E+01 0.29856477478E+01
 0.31402927667E+01 0.33697744231E+01 0.36888012754E+01 0.41045112052E+01 0.46084827383E+01
 0.51631766021E+01 0.57511270169E+01 0.63405004784E+01 0.68281803235E+01 0.70925147874E+01
 0.70614115582E+01 0.67666699963E+01 0.50451523808E+01 0.47472786471E+01 0.44218703361E+01
 0.41125408697E+01 0.38353196325E+01 0.35894025950E+01 0.33875068621E+01 0.32193071715E+01
 0.30811508048E+01 0.29696815660E+01 0.28847643647E+01 0.28279006220E+01 0.27988370566E+01
 0.27985772122E+01 0.28287400141E+01 0.28932354653E+01 0.29992131854E+01 0.31553534579E+01
 0.33697360503E+01 0.36447763945E+01 0.39718579506E+01 0.43351751240E+01 0.46981506830E+01
 0.50171110558E+01 0.52564029645E+01 0.53830251588E+01 0.53862027778E+01 0.52676123438E+01
 0.43131355466E+01 0.41711349276E+01 0.40074998435E+01 0.38333346449E+01 0.36638366737E+01
 0.35087011975E+01 0.33597378776E+01 0.32228597792E+01 0.30983728094E+01 0.29911856004E+01
 0.29042515399E+01 0.28392596515E+01 0.27986056666E+01 0.27825019062E+01 0.27918935980E+01
 0.28287202827E+01 0.28964049116E+01 0.29991712502E+01 0.31403786358E+01 0.33196689040E+01
 0.35325249746E+01 0.37630056049E+01 0.39931573271E+01 0.42011299110E+01 0.43613332864E+01
 0.44575460536E+01 0.44755328663E+01 0.44217683839E+01 0.39890014717E+01 0.39394431835E+01
 0.38715938460E+01 0.37907872971E+01 0.36934045951E+01 0.35779599472E+01 0.34546963814E+01
 0.33246269223E+01 0.31971453583E+01 0.30774534941E+01 0.29729186854E+01 0.28894898520E+01
 0.28286954640E+01 0.27919053820E+01 0.27792170080E+01 0.27911622504E+01 0.28287007942E+01
 0.28933003194E+01 0.29855393421E+01 0.31049299508E+01 0.32461398987E+01 0.34037287922E+01
 0.35649992494E+01 0.37152457572E+01 0.38422934242E+01 0.39330609828E+01 0.39893607870E+01
 0.40076183848E+01 0.39394170168E+01 0.39889561453E+01 0.40075344502E+01 0.39887617232E+01
 0.39333808450E+01 0.38424683938E+01 0.37153199508E+01 0.35655204562E+01 0.34035289649E+01
 0.32463456523E+01 0.31049454136E+01 0.29855357249E+01 0.28932879476E+01 0.28287020596E+01
 0.27911683956E+01 0.27792035412E+01 0.27919281536E+01 0.28286610875E+01 0.28895131918E+01
 0.29729062887E+01 0.30776924206E+01 0.31969583419E+01 0.33251285630E+01 0.34547614333E+01
 0.35781647180E+01 0.36937321353E+01 0.37902150044E+01 0.38715020133E+01 0.41711305624E+01
 0.43131751162E+01 0.44218025243E+01 0.44761969809E+01 0.44572533347E+01 0.43611972390E+01
 0.42010730871E+01 0.39926036837E+01 0.37632133808E+01 0.35323529483E+01 0.33196229499E+01
 0.31404134869E+01 0.29991570452E+01 0.28964252331E+01 0.28286934478E+01 0.27919270857E+01
 0.27824586298E+01 0.27986634043E+01 0.28392153035E+01 0.29042905683E+01 0.29909206820E+01
 0.30985662921E+01 0.32223788756E+01 0.33596955135E+01 0.35084817474E+01 0.36635238462E+01
 0.38338970667E+01 0.40076049835E+01 0.47472760838E+01 0.50451540584E+01 0.52675850710E+01
 0.53855099873E+01 0.53833892217E+01 0.52564546830E+01 0.50172033773E+01 0.46987862763E+01
 0.43349215205E+01 0.39719677099E+01 0.36448690759E+01 0.33696492390E+01 0.31554150751E+01
 0.29991564632E+01 0.28932962184E+01 0.28286728455E+01 0.27986488054E+01 0.27987512631E+01
 0.28279774973E+01 0.28846951899E+01 0.29699701774E+01 0.30809392637E+01 0.32197866302E+01
 0.33875502883E+01 0.35896643511E+01 0.38356367392E+01 0.41119792927E+01 0.44217474187E+01
 0.57972821269E+01 0.63107186618E+01 0.67667158493E+01 0.70620437240E+01 0.70922445633E+01
 0.68282007750E+01 0.63403781928E+01 0.57502933306E+01 0.51635928108E+01 0.46083449325E+01
 0.41043488224E+01 0.36888931696E+01 0.33696874900E+01 0.31403740377E+01 0.29855685196E+01
 0.28894726372E+01 0.28392557955E+01 0.28279477306E+01 0.28513737975E+01 0.29099240319E+01
 0.30028860372E+01 0.31364385479E+01 0.33157233041E+01 0.35554168846E+01 0.38673257875E+01
 0.42563719252E+01 0.47389576086E+01 0.52676608478E+01 0.80252441757E+01 0.94831914779E+01
 0.10800181065E+02 0.11581874242E+02 0.11568807026E+02 0.10752808342E+02 0.93763176659E+01
 0.78293953143E+01 0.64674381089E+01 0.54608530432E+01 0.47116415360E+01 0.41043190483E+01
 0.36448498763E+01 0.33196405009E+01 0.31049443824E+01 0.29729082392E+01 0.29042751668E+01
 0.28846943773E+01 0.29099615742E+01 0.29778753527E+01 0.30967915393E+01 0.32753600082E+01
 0.35374556728E+01 0.39034301813E+01 0.44042494852E+01 0.50530188222E+01 0.58107999608E+01
 0.67666094136E+01 0.14238713473E+02 0.17766713087E+02 0.20535387684E+02 0.21819276984E+02
 0.21274032605E+02 0.19058609599E+02 0.15757823452E+02 0.12168456191E+02 0.90326857744E+01
 0.67944844241E+01 0.54603835837E+01 0.46088322368E+01 0.39715037485E+01 0.35328215449E+01
 0.32458851320E+01 0.30779230529E+01 0.29906777806E+01 0.29702363549E+01 0.30026102987E+01
 0.30970364577E+01 0.32615432008E+01 0.35310854765E+01 0.39349468365E+01 0.45289623197E+01
 0.53239922758E+01 0.63907481238E+01 0.81168154615E+01 0.10800506526E+02 0.27518073951E+02
 0.33865477786E+02 0.38191505332E+02 0.39504063485E+02 0.37527449901E+02 0.32742164624E+02
 0.26243344535E+02 0.19377858670E+02 0.13384540434E+02 0.90321426492E+01 0.64684848596E+01
 0.51625093909E+01 0.43359462250E+01 0.37622057122E+01 0.34045647869E+01 0.31960775709E+01
 0.30994406526E+01 0.30800579247E+01 0.31373858269E+01 0.32744131503E+01 0.35317456020E+01
 0.39468484956E+01 0.45969433715E+01 0.55088790521E+01 0.69350700802E+01 0.96697705504E+01
 0.14277127882E+02 0.20534899329E+02 0.49530550290E+02 0.58828823030E+02 0.64234791598E+02
 0.64662146203E+02 0.60060378130E+02 0.51423222069E+02 0.40468754143E+02 0.29198932470E+02
 0.19378727287E+02 0.12168214047E+02 0.78291918005E+01 0.57504962605E+01 0.46986097246E+01
 0.39928093952E+01 0.35653199630E+01 0.33248126374E+01 0.32226411206E+01 0.32195994408E+01
 0.33158797845E+01 0.35372525469E+01 0.39353536875E+01 0.45958785497E+01 0.55779064914E+01
 0.72819909656E+01 0.10940168220E+02 0.17496389522E+02 0.26916402471E+02 0.38191200505E+02
 0.79909028935E+02 0.91551279415E+02 0.97038351313E+02 0.95380387394E+02 0.86940256287E+02
 0.73318893429E+02 0.56934424127E+02 0.40469074382E+02 0.26242185212E+02 0.15758433512E+02
 0.93761729123E+01 0.63404651443E+01 0.50170716052E+01 0.42012312386E+01 0.37151741660E+01
 0.34548026608E+01 0.33596489320E+01 0.33875774752E+01 0.35554523689E+01 0.39034073426E+01
 0.45287394340E+01 0.55098013945E+01 0.72821947113E+01 0.11427625986E+02 0.19421942069E+02
 0.31645991668E+02 0.47253226918E+02 0.64234286497E+02 0.11620478523E+03 0.12900082836E+03
 0.13325297570E+03 0.12827568789E+03 0.11495835131E+03 0.95601659096E+02 0.73316496334E+02
 0.51425244041E+02 0.32740936053E+02 0.19060388501E+02 0.10750551848E+02 0.68304679073E+01
 0.52542190257E+01 0.43634447383E+01 0.38402208388E+01 0.35802093341E+01 0.35064216818E+01
 0.35917362864E+01 0.38652558991E+01 0.44062991429E+01 0.53221949767E+01 0.69362038351E+01
 0.10937925793E+02 0.19423953630E+02 0.33389766546E+02 0.52436825029E+02 0.74638878820E+02
 0.97041260675E+02 0.15441768269E+03 0.16680623643E+03 0.16843718480E+03 0.15908289657E+03
 0.14026736174E+03 0.11496344095E+03 0.86937570947E+02 0.60063366455E+02 0.37523576550E+02
 0.21277350550E+02 0.11566009114E+02 0.70950180864E+01 0.53805405757E+01 0.44601067362E+01
 0.39305720043E+01 0.36961937507E+01 0.36610311664E+01 0.38380878225E+01 0.42540120002E+01
 0.50554067827E+01 0.63880291920E+01 0.96731644677E+01 0.17494061771E+02 0.31648757969E+02
 0.52432002497E+02 0.78387210206E+02 0.10659689215E+03 0.13325390638E+03 0.18976613009E+03
 0.20011531922E+03 0.19790847458E+03 0.18349574903E+03 0.15908106264E+03 0.12827251241E+03
 0.95381279533E+02 0.64660932933E+02 0.39506086504E+02 0.21817881330E+02 0.11582883107E+02
 0.70610333841E+01 0.53864878380E+01 0.44752491817E+01 0.39897736082E+01 0.37897597424E+01
 0.38342703886E+01 0.41116796284E+01 0.47392899170E+01 0.58104052404E+01 0.81173779183E+01
 0.14275970038E+02 0.26916468557E+02 0.47252754529E+02 0.74640384221E+02 0.10659987732E+03
 0.13932767741E+03 0.16843838850E+03 0.21750939384E+03 0.22438682546E+03 0.21750854977E+03
 0.19790725874E+03 0.16844011437E+03 0.13325518562E+03 0.97038617960E+02 0.64234788136E+02
 0.38190590241E+02 0.20535810567E+02 0.10800302958E+02 0.67664790995E+01 0.52676975301E+01
 0.44217734987E+01 0.40076553127E+01 0.38713764240E+01 0.40076551291E+01 0.44217537721E+01
 0.52677656117E+01 0.67664234612E+01 0.10800383426E+02 0.20535795278E+02 0.38191263321E+02
 0.64234932685E+02 0.97039112926E+02 0.13325324840E+03 0.16843863830E+03 0.19790885931E+03
 0.23376203167E+03 0.23617477019E+03 0.22438620662E+03 0.20011677982E+03 0.16680282063E+03
 0.12899927833E+03 0.91550473396E+02 0.58829130113E+02 0.33865923054E+02 0.17766941964E+02
 0.94825260589E+01 0.63112709055E+01 0.50445922396E+01 0.43138725904E+01 0.39882996655E+01
 0.39399776817E+01 0.41705292504E+01 0.47480623134E+01 0.57965084129E+01 0.80258404238E+01
 0.14238330747E+02 0.27517983000E+02 0.49529848392E+02 0.79909909514E+02 0.11620438725E+03
 0.15442151371E+03 0.18976411428E+03 0.21750896707E+03 0.21532894231E+03 0.21751033381E+03
 0.20633799166E+03 0.18349623334E+03 0.15230973312E+03 0.11712759375E+03 0.82558300777E+02
 0.52650790675E+02 0.30136407434E+02 0.15877604399E+02 0.87317899514E+01 0.60397902421E+01
 0.48820392385E+01 0.42070229388E+01 0.39074386621E+01 0.38630378011E+01 0.40782292399E+01
 0.46103468569E+01 0.55881812946E+01 0.75150945902E+01 0.12833296091E+02 0.24538383775E+02
 0.44340627767E+02 0.72076085486E+02 0.10556649759E+03 0.14109415663E+03 0.17412230522E+03
 0.20011717940E+03 0.20011526150E+03 0.19790979012E+03 0.18349608799E+03 0.15908140592E+03
 0.12827122260E+03 0.95382822335E+02 0.64659117493E+02 0.39505479384E+02 0.21817573743E+02
 0.11583289866E+02 0.70607716779E+01 0.53867365468E+01 0.44749876435E+01 0.39900285573E+01
 0.37895053976E+01 0.38345239525E+01 0.41113668137E+01 0.47396632607E+01 0.58100477221E+01
 0.81176556794E+01 0.14275912538E+02 0.26917472439E+02 0.47252395355E+02 0.74639934101E+02
 0.10659706216E+03 0.13932679065E+03 0.16843666732E+03 0.18976424777E+03 0.17412030729E+03
 0.16844014178E+03 0.15230624924E+03 0.12827492230E+03 0.99978789524E+02 0.71441926969E+02