 vasp.5.4.4.18Apr17-6-g9f103f2a35 (build Mar 26 2021 11:21:13) complex          
  
 executed on             LinuxIFC date 2022.01.04  00:58:42
 running on    4 total cores
 distrk:  each k-point on    4 cores,    1 groups
 distr:  one band on NCORES_PER_BAND=   1 cores,    4 groups


--------------------------------------------------------------------------------------------------------


 INCAR:
 POTCAR:    PAW_PBE Fe_pv 02Aug2007               
 POTCAR:    PAW_PBE Fe_pv 02Aug2007               
   VRHFIN =Fe:  3pd7s1                                                          
   LEXCH  = PE                                                                  
   EATOM  =  2457.4239 eV,  180.6156 Ry                                         
                                                                                
   TITEL  = PAW_PBE Fe_pv 02Aug2007                                             
   LULTRA =        F    use ultrasoft PP ?                                      
   IUNSCR =        1    unscreen: 0-lin 1-nonlin 2-no                           
   RPACOR =    1.750    partial core radius                                     
   POMASS =   55.847; ZVAL   =   14.000    mass and valenz                      
   RCORE  =    2.200    outmost cutoff radius                                   
   RWIGS  =    2.200; RWIGS  =    1.164    wigner-seitz radius (au A)           
   ENMAX  =  293.238; ENMIN  =  219.928 eV                                      
   ICORE  =        3    local potential                                         
   LCOR   =        T    correct aug charges                                     
   LPAW   =        T    paw PP                                                  
   EAUG   =  578.342                                                            
   DEXC   =    0.000                                                            
   RMAX   =    2.249    core radius for proj-oper                               
   RAUG   =    1.300    factor for augmentation sphere                          
   RDEP   =    2.296    radius for radial grids                                 
   RDEPT  =    1.766    core radius for aug-charge                              
                                                                                
   Atomic configuration                                                         
    8 entries                                                                   
     n  l   j            E        occ.                                          
     1  0  0.50     -6993.8440   2.0000                                         
     2  0  0.50      -814.6047   2.0000                                         
     2  1  1.50      -693.3689   6.0000                                         
     3  0  0.50       -89.4732   2.0000                                         
     3  1  1.50       -55.6373   6.0000                                         
     3  2  2.50        -3.8151   7.0000                                         
     4  0  0.50        -4.2551   1.0000                                         
     4  3  2.50        -1.3606   0.0000                                         
   Description                                                                  
     l       E           TYP  RCUT    TYP  RCUT                                 
     1    -55.6372668     23  2.000                                             
     1     -5.4423304     23  2.000                                             
     2     -3.8151096     23  2.200                                             
     2     -5.1756922     23  2.200                                             
     0     -4.2550951     23  2.200                                             
     0     27.2116520     23  2.200                                             
     3     -1.3605826     23  2.200                                             
  local pseudopotential read in
  partial core-charges read in
  partial kinetic energy density read in
  atomic valenz-charges read in
  non local Contribution for L=           1  read in
    real space projection operators read in
  non local Contribution for L=           1  read in
    real space projection operators read in
  non local Contribution for L=           2  read in
    real space projection operators read in
  non local Contribution for L=           2  read in
    real space projection operators read in
  non local Contribution for L=           0  read in
    real space projection operators read in
  non local Contribution for L=           0  read in
    real space projection operators read in
    PAW grid and wavefunctions read in
 
   number of l-projection  operators is LMAX  =           6
   number of lm-projection operators is LMMAX =          18
 
  PAW_PBE Fe_pv 02Aug2007               :
 energy of atom  1       EATOM=-2457.4239
 kinetic energy error for atom=    0.0060 (will be added to EATOM!!)
 
 
 POSCAR: Fe                                      
  positions in direct lattice
  velocities in cartesian coordinates
 exchange correlation table for  LEXCH =        8
   RHO(1)=    0.500       N(1)  =     2000
   RHO(2)=  100.500       N(2)  =     4000
 


--------------------------------------------------------------------------------------------------------


 ion  position               nearest neighbor table
   1  0.000  0.000  0.000-
 
  LATTYP: Found a body centered cubic cell.
 ALAT       =     2.8700000000
  
  Lattice vectors:
  
 A1 = (   1.4350000000,  -1.4350000000,   1.4350000000)
 A2 = (  -1.4350000000,  -1.4350000000,  -1.4350000000)
 A3 = (   1.4350000000,   1.4350000000,  -1.4350000000)


Analysis of symmetry for initial positions (statically):
=====================================================================
 Subroutine PRICEL returns:
 Original cell was already a primitive cell.
 

 Routine SETGRP: Setting up the symmetry group for a 
 body centered cubic supercell.


 Subroutine GETGRP returns: Found 48 space group operations
 (whereof 48 operations were pure point group operations)
 out of a pool of 48 trial point group operations.


The static configuration has the point symmetry O_h .


Analysis of symmetry for dynamics (positions and initial velocities):
=====================================================================
 Subroutine PRICEL returns:
 Original cell was already a primitive cell.
 

 Routine SETGRP: Setting up the symmetry group for a 
 body centered cubic supercell.


 Subroutine GETGRP returns: Found 48 space group operations
 (whereof 48 operations were pure point group operations)
 out of a pool of 48 trial point group operations.


The dynamic configuration has the point symmetry O_h .


Analysis of structural, dynamic, and magnetic symmetry:
=====================================================================
 Subroutine PRICEL returns:
 Original cell was already a primitive cell.
 

 Routine SETGRP: Setting up the symmetry group for a 
 body centered cubic supercell.


 Subroutine GETGRP returns: Found 48 space group operations
 (whereof 48 operations were pure point group operations)
 out of a pool of 48 trial point group operations.


The magnetic configuration has the point symmetry O_h .


 Subroutine INISYM returns: Found 48 space group operations
 (whereof 48 operations are pure point group operations),
 and found     1 'primitive' translations

 
 
 KPOINTS: Automatic Mesh # Generates Automatically

Automatic generation of k-mesh.
Space group operators:
 irot       det(A)        alpha          n_x          n_y          n_z        tau_x        tau_y        tau_z
    1     1.000000     0.000000     1.000000     0.000000     0.000000     0.000000     0.000000     0.000000
    2    -1.000000     0.000000     1.000000     0.000000     0.000000     0.000000     0.000000     0.000000
    3     1.000000   120.000000    -0.577350     0.577350     0.577350     0.000000     0.000000     0.000000
    4    -1.000000   120.000000    -0.577350     0.577350     0.577350     0.000000     0.000000     0.000000
    5     1.000000   120.000000     0.577350    -0.577350    -0.577350     0.000000     0.000000     0.000000
    6    -1.000000   120.000000     0.577350    -0.577350    -0.577350     0.000000     0.000000     0.000000
    7     1.000000    90.000000     0.000000     1.000000     0.000000     0.000000     0.000000     0.000000
    8    -1.000000    90.000000     0.000000     1.000000     0.000000     0.000000     0.000000     0.000000
    9     1.000000   180.000000     0.707107    -0.707107     0.000000     0.000000     0.000000     0.000000
   10    -1.000000   180.000000     0.707107    -0.707107     0.000000     0.000000     0.000000     0.000000
   11     1.000000    90.000000     1.000000     0.000000     0.000000     0.000000     0.000000     0.000000
   12    -1.000000    90.000000     1.000000     0.000000     0.000000     0.000000     0.000000     0.000000
   13     1.000000   180.000000     0.000000     1.000000     0.000000     0.000000     0.000000     0.000000
   14    -1.000000   180.000000     0.000000     1.000000     0.000000     0.000000     0.000000     0.000000
   15     1.000000   120.000000     0.577350    -0.577350     0.577350     0.000000     0.000000     0.000000
   16    -1.000000   120.000000     0.577350    -0.577350     0.577350     0.000000     0.000000     0.000000
   17     1.000000   120.000000     0.577350     0.577350     0.577350     0.000000     0.000000     0.000000
   18    -1.000000   120.000000     0.577350     0.577350     0.577350     0.000000     0.000000     0.000000
   19     1.000000    90.000000     0.000000    -1.000000     0.000000     0.000000     0.000000     0.000000
   20    -1.000000    90.000000     0.000000    -1.000000     0.000000     0.000000     0.000000     0.000000
   21     1.000000    90.000000     0.000000     0.000000     1.000000     0.000000     0.000000     0.000000
   22    -1.000000    90.000000     0.000000     0.000000     1.000000     0.000000     0.000000     0.000000
   23     1.000000   180.000000     0.000000     0.707107     0.707107     0.000000     0.000000     0.000000
   24    -1.000000   180.000000     0.000000     0.707107     0.707107     0.000000     0.000000     0.000000
   25     1.000000   120.000000    -0.577350    -0.577350    -0.577350     0.000000     0.000000     0.000000
   26    -1.000000   120.000000    -0.577350    -0.577350    -0.577350     0.000000     0.000000     0.000000
   27     1.000000   120.000000    -0.577350    -0.577350     0.577350     0.000000     0.000000     0.000000
   28    -1.000000   120.000000    -0.577350    -0.577350     0.577350     0.000000     0.000000     0.000000
   29     1.000000   180.000000     0.000000     0.000000     1.000000     0.000000     0.000000     0.000000
   30    -1.000000   180.000000     0.000000     0.000000     1.000000     0.000000     0.000000     0.000000
   31     1.000000    90.000000    -1.000000     0.000000     0.000000     0.000000     0.000000     0.000000
   32    -1.000000    90.000000    -1.000000     0.000000     0.000000     0.000000     0.000000     0.000000
   33     1.000000   180.000000     0.707107     0.000000    -0.707107     0.000000     0.000000     0.000000
   34    -1.000000   180.000000     0.707107     0.000000    -0.707107     0.000000     0.000000     0.000000
   35     1.000000    90.000000     0.000000     0.000000    -1.000000     0.000000     0.000000     0.000000
   36    -1.000000    90.000000     0.000000     0.000000    -1.000000     0.000000     0.000000     0.000000
   37     1.000000   120.000000    -0.577350     0.577350    -0.577350     0.000000     0.000000     0.000000
   38    -1.000000   120.000000    -0.577350     0.577350    -0.577350     0.000000     0.000000     0.000000
   39     1.000000   180.000000     1.000000     0.000000     0.000000     0.000000     0.000000     0.000000
   40    -1.000000   180.000000     1.000000     0.000000     0.000000     0.000000     0.000000     0.000000
   41     1.000000   120.000000     0.577350     0.577350    -0.577350     0.000000     0.000000     0.000000
   42    -1.000000   120.000000     0.577350     0.577350    -0.577350     0.000000     0.000000     0.000000
   43     1.000000   180.000000     0.707107     0.707107     0.000000     0.000000     0.000000     0.000000
   44    -1.000000   180.000000     0.707107     0.707107     0.000000     0.000000     0.000000     0.000000
   45     1.000000   180.000000     0.707107     0.000000     0.707107     0.000000     0.000000     0.000000
   46    -1.000000   180.000000     0.707107     0.000000     0.707107     0.000000     0.000000     0.000000
   47     1.000000   180.000000     0.000000    -0.707107     0.707107     0.000000     0.000000     0.000000
   48    -1.000000   180.000000     0.000000    -0.707107     0.707107     0.000000     0.000000     0.000000
 
 Subroutine IBZKPT returns following result:
 ===========================================
 
 Found    286 irreducible k-points:
 
 Following reciprocal coordinates:
            Coordinates               Weight
  0.000000  0.000000  0.000000      1.000000
  0.047619  0.000000  0.000000     12.000000
  0.095238  0.000000  0.000000     12.000000
  0.142857  0.000000  0.000000     12.000000
  0.190476  0.000000  0.000000     12.000000
  0.238095  0.000000  0.000000     12.000000
  0.285714  0.000000  0.000000     12.000000
  0.333333  0.000000  0.000000     12.000000
  0.380952  0.000000  0.000000     12.000000
  0.428571  0.000000  0.000000     12.000000
  0.476190  0.000000  0.000000     12.000000
  0.095238  0.047619  0.000000     24.000000
  0.142857  0.047619  0.000000     48.000000
  0.190476  0.047619  0.000000     48.000000
  0.238095  0.047619  0.000000     48.000000
  0.285714  0.047619  0.000000     48.000000
  0.333333  0.047619  0.000000     48.000000
  0.380952  0.047619  0.000000     48.000000
  0.428571  0.047619  0.000000     48.000000
  0.476190  0.047619 -0.000000     48.000000
 -0.476190  0.047619 -0.000000     24.000000
  0.190476  0.095238  0.000000     24.000000
  0.238095  0.095238  0.000000     48.000000
  0.285714  0.095238  0.000000     48.000000
  0.333333  0.095238  0.000000     48.000000
  0.380952  0.095238  0.000000     48.000000
  0.428571  0.095238  0.000000     48.000000
  0.476190  0.095238  0.000000     48.000000
 -0.476190  0.095238  0.000000     48.000000
  0.285714  0.142857  0.000000     24.000000
  0.333333  0.142857 -0.000000     48.000000
  0.380952  0.142857  0.000000     48.000000
  0.428571  0.142857 -0.000000     48.000000
  0.476190  0.142857 -0.000000     48.000000
 -0.476190  0.142857 -0.000000     48.000000
 -0.428571  0.142857 -0.000000     24.000000
  0.380952  0.190476  0.000000     24.000000
  0.428571  0.190476 -0.000000     48.000000
  0.476190  0.190476  0.000000     48.000000
 -0.476190  0.190476  0.000000     48.000000
 -0.428571  0.190476  0.000000     48.000000
  0.476190  0.238095  0.000000     24.000000
 -0.476190  0.238095 -0.000000     48.000000
 -0.428571  0.238095 -0.000000     48.000000
 -0.380952  0.238095 -0.000000     24.000000
 -0.428571  0.285714 -0.000000     24.000000
 -0.380952  0.285714 -0.000000     48.000000
 -0.333333  0.333333  0.000000      8.000000
  0.047619  0.047619  0.047619      6.000000
  0.095238  0.047619  0.047619     24.000000
  0.142857  0.047619  0.047619     24.000000
  0.190476  0.047619  0.047619     24.000000
  0.238095  0.047619  0.047619     24.000000
  0.285714  0.047619  0.047619     24.000000
  0.333333  0.047619  0.047619     24.000000
  0.380952  0.047619  0.047619     24.000000
  0.428571  0.047619  0.047619     24.000000
  0.476190  0.047619  0.047619     24.000000
  0.142857  0.095238  0.047619     24.000000
  0.190476  0.095238  0.047619     48.000000
  0.238095  0.095238  0.047619     48.000000
  0.285714  0.095238  0.047619     48.000000
  0.333333  0.095238  0.047619     48.000000
  0.380952  0.095238  0.047619     48.000000
  0.428571  0.095238  0.047619     48.000000
  0.476190  0.095238  0.047619     48.000000
 -0.476190  0.095238  0.047619     24.000000
  0.047619  0.142857  0.047619      8.000000
  0.238095  0.142857  0.047619     24.000000
  0.285714  0.142857  0.047619     48.000000
  0.333333  0.142857  0.047619     48.000000
  0.380952  0.142857  0.047619     48.000000
  0.428571  0.142857  0.047619     48.000000
  0.476190  0.142857  0.047619     48.000000
 -0.476190  0.142857  0.047619     48.000000
  0.047619  0.190476  0.047619     24.000000
  0.333333  0.190476  0.047619     24.000000
  0.380952  0.190476  0.047619     48.000000
  0.428571  0.190476  0.047619     48.000000
  0.476190  0.190476  0.047619     48.000000
 -0.476190  0.190476  0.047619     48.000000
 -0.428571  0.190476  0.047619     24.000000
  0.047619  0.238095  0.047619     24.000000
  0.095238  0.238095  0.047619     24.000000
  0.428571  0.238095  0.047619     24.000000
  0.476190  0.238095  0.047619     48.000000
 -0.476190  0.238095  0.047619     48.000000
 -0.428571  0.238095  0.047619     48.000000
  0.047619  0.285714  0.047619     24.000000
  0.095238  0.285714  0.047619     48.000000
 -0.476190  0.285714  0.047619     24.000000
 -0.428571  0.285714  0.047619     48.000000
 -0.380952  0.285714  0.047619     24.000000
  0.047619  0.333333  0.047619     24.000000
  0.095238  0.333333  0.047619     48.000000
  0.142857  0.333333  0.047619     24.000000
 -0.380952  0.333333  0.047619     24.000000
  0.047619  0.380952  0.047619     24.000000
  0.095238  0.380952  0.047619     48.000000
  0.142857  0.380952  0.047619     48.000000
  0.047619  0.428571  0.047619     24.000000
  0.095238  0.428571  0.047619     48.000000
  0.142857  0.428571  0.047619     48.000000
  0.190476  0.428571  0.047619     24.000000
  0.047619  0.476190  0.047619     24.000000
  0.095238  0.476190  0.047619     48.000000
  0.142857  0.476190  0.047619     48.000000
  0.190476  0.476190  0.047619     48.000000
  0.047619 -0.476190  0.047619     24.000000
  0.095238 -0.476190  0.047619     48.000000
  0.142857 -0.476190  0.047619     48.000000
  0.190476 -0.476190  0.047619     48.000000
  0.238095 -0.476190  0.047619     24.000000
  0.095238 -0.428571  0.047619     24.000000
  0.142857 -0.428571  0.047619     48.000000
  0.190476 -0.428571  0.047619     48.000000
  0.238095 -0.428571  0.047619     48.000000
  0.190476 -0.380952  0.047619     24.000000
  0.238095 -0.380952  0.047619     48.000000
  0.285714 -0.380952  0.047619     24.000000
  0.285714 -0.333333  0.047619     24.000000
  0.095238  0.095238  0.095238      6.000000
  0.142857  0.095238  0.095238     24.000000
  0.190476  0.095238  0.095238     24.000000
  0.238095  0.095238  0.095238     24.000000
  0.285714  0.095238  0.095238     24.000000
  0.333333  0.095238  0.095238     24.000000
  0.380952  0.095238  0.095238     24.000000
  0.428571  0.095238  0.095238     24.000000
  0.476190  0.095238  0.095238     24.000000
  0.190476  0.142857  0.095238     24.000000
  0.238095  0.142857  0.095238     48.000000
  0.285714  0.142857  0.095238     48.000000
  0.333333  0.142857  0.095238     48.000000
  0.380952  0.142857  0.095238     48.000000
  0.428571  0.142857  0.095238     48.000000
  0.476190  0.142857  0.095238     48.000000
 -0.476190  0.142857  0.095238     24.000000
  0.285714  0.190476  0.095238     24.000000
  0.333333  0.190476  0.095238     48.000000
  0.380952  0.190476  0.095238     48.000000
  0.428571  0.190476  0.095238     48.000000
  0.476190  0.190476  0.095238     48.000000
 -0.476190  0.190476  0.095238     48.000000
  0.380952  0.238095  0.095238     24.000000
  0.428571  0.238095  0.095238     48.000000
  0.476190  0.238095  0.095238     48.000000
 -0.476190  0.238095  0.095238     48.000000
 -0.428571  0.238095  0.095238     24.000000
  0.095238  0.285714  0.095238      8.000000
  0.476190  0.285714  0.095238     24.000000
 -0.476190  0.285714  0.095238     48.000000
 -0.428571  0.285714  0.095238     48.000000
  0.095238  0.333333  0.095238     24.000000
 -0.428571  0.333333  0.095238     24.000000
 -0.380952  0.333333  0.095238     24.000000
  0.095238  0.380952  0.095238     24.000000
  0.142857  0.380952  0.095238     24.000000
  0.095238  0.428571  0.095238     24.000000
  0.142857  0.428571  0.095238     48.000000
  0.095238  0.476190  0.095238     24.000000
  0.142857  0.476190  0.095238     48.000000
  0.190476  0.476190  0.095238     24.000000
  0.095238 -0.476190  0.095238     24.000000
  0.142857 -0.476190  0.095238     48.000000
  0.190476 -0.476190  0.095238     48.000000
  0.095238 -0.428571  0.095238     24.000000
  0.142857 -0.428571  0.095238     48.000000
  0.190476 -0.428571  0.095238     48.000000
  0.238095 -0.428571  0.095238     24.000000
  0.142857 -0.380952  0.095238     24.000000
  0.190476 -0.380952  0.095238     48.000000
  0.238095 -0.380952  0.095238     48.000000
  0.238095 -0.333333  0.095238     24.000000
  0.285714 -0.333333  0.095238     24.000000
  0.142857  0.142857  0.142857      6.000000
  0.190476  0.142857  0.142857     24.000000
  0.238095  0.142857  0.142857     24.000000
  0.285714  0.142857  0.142857     24.000000
  0.333333  0.142857  0.142857     24.000000
  0.380952  0.142857  0.142857     24.000000
  0.428571  0.142857  0.142857     24.000000
  0.476190  0.142857  0.142857     24.000000
  0.238095  0.190476  0.142857     24.000000
  0.285714  0.190476  0.142857     48.000000
  0.333333  0.190476  0.142857     48.000000
  0.380952  0.190476  0.142857     48.000000
  0.428571  0.190476  0.142857     48.000000
  0.476190  0.190476  0.142857     48.000000
 -0.476190  0.190476  0.142857     24.000000
  0.333333  0.238095  0.142857     24.000000
  0.380952  0.238095  0.142857     48.000000
  0.428571  0.238095  0.142857     48.000000
  0.476190  0.238095  0.142857     48.000000
 -0.476190  0.238095  0.142857     48.000000
  0.428571  0.285714  0.142857     24.000000
  0.476190  0.285714  0.142857     48.000000
 -0.476190  0.285714  0.142857     48.000000
 -0.428571  0.285714  0.142857     24.000000
 -0.476190  0.333333  0.142857     24.000000
 -0.428571  0.333333  0.142857     48.000000
 -0.380952  0.380952  0.142857      8.000000
  0.142857  0.428571  0.142857      8.000000
  0.142857  0.476190  0.142857     24.000000
  0.142857 -0.476190  0.142857     24.000000
  0.190476 -0.476190  0.142857     24.000000
  0.142857 -0.428571  0.142857     24.000000
  0.190476 -0.428571  0.142857     48.000000
  0.142857 -0.380952  0.142857     24.000000
  0.190476 -0.380952  0.142857     48.000000
  0.238095 -0.380952  0.142857     24.000000
  0.190476 -0.333333  0.142857     24.000000
  0.238095 -0.333333  0.142857     48.000000
  0.285714 -0.285714  0.142857      8.000000
  0.190476  0.190476  0.190476      6.000000
  0.238095  0.190476  0.190476     24.000000
  0.285714  0.190476  0.190476     24.000000
  0.333333  0.190476  0.190476     24.000000
  0.380952  0.190476  0.190476     24.000000
  0.428571  0.190476  0.190476     24.000000
  0.476190  0.190476  0.190476     24.000000
  0.285714  0.238095  0.190476     24.000000
  0.333333  0.238095  0.190476     48.000000
  0.380952  0.238095  0.190476     48.000000
  0.428571  0.238095  0.190476     48.000000
  0.476190  0.238095  0.190476     48.000000
 -0.476190  0.238095  0.190476     24.000000
  0.380952  0.285714  0.190476     24.000000
  0.428571  0.285714  0.190476     48.000000
  0.476190  0.285714  0.190476     48.000000
 -0.476190  0.285714  0.190476     48.000000
  0.476190  0.333333  0.190476     24.000000
 -0.476190  0.333333  0.190476     48.000000
 -0.428571  0.333333  0.190476     24.000000
 -0.428571  0.380952  0.190476     24.000000
  0.190476 -0.428571  0.190476      8.000000
  0.190476 -0.380952  0.190476     24.000000
  0.190476 -0.333333  0.190476     24.000000
  0.238095 -0.333333  0.190476     24.000000
  0.238095 -0.285714  0.190476     24.000000
  0.238095  0.238095  0.238095      6.000000
  0.285714  0.238095  0.238095     24.000000
  0.333333  0.238095  0.238095     24.000000
  0.380952  0.238095  0.238095     24.000000
  0.428571  0.238095  0.238095     24.000000
  0.476190  0.238095  0.238095     24.000000
  0.333333  0.285714  0.238095     24.000000
  0.380952  0.285714  0.238095     48.000000
  0.428571  0.285714  0.238095     48.000000
  0.476190  0.285714  0.238095     48.000000
 -0.476190  0.285714  0.238095     24.000000
  0.428571  0.333333  0.238095     24.000000
  0.476190  0.333333  0.238095     48.000000
 -0.476190  0.333333  0.238095     48.000000
 -0.476190  0.380952  0.238095     24.000000
 -0.428571  0.380952  0.238095     24.000000
  0.238095 -0.285714  0.238095      8.000000
  0.285714  0.285714  0.285714      6.000000
  0.333333  0.285714  0.285714     24.000000
  0.380952  0.285714  0.285714     24.000000
  0.428571  0.285714  0.285714     24.000000
  0.476190  0.285714  0.285714     24.000000
  0.380952  0.333333  0.285714     24.000000
  0.428571  0.333333  0.285714     48.000000
  0.476190  0.333333  0.285714     48.000000
 -0.476190  0.333333  0.285714     24.000000
  0.476190  0.380952  0.285714     24.000000
 -0.476190  0.380952  0.285714     48.000000
 -0.428571  0.428571  0.285714      8.000000
  0.333333  0.333333  0.333333      6.000000
  0.380952  0.333333  0.333333     24.000000
  0.428571  0.333333  0.333333     24.000000
  0.476190  0.333333  0.333333     24.000000
  0.428571  0.380952  0.333333     24.000000
  0.476190  0.380952  0.333333     48.000000
 -0.476190  0.380952  0.333333     24.000000
 -0.476190  0.428571  0.333333     24.000000
  0.380952  0.380952  0.380952      6.000000
  0.428571  0.380952  0.380952     24.000000
  0.476190  0.380952  0.380952     24.000000
  0.476190  0.428571  0.380952     24.000000
 -0.476190  0.428571  0.380952     24.000000
  0.428571  0.428571  0.428571      6.000000
  0.476190  0.428571  0.428571     24.000000
 -0.476190  0.476190  0.428571      8.000000
  0.476190  0.476190  0.476190      6.000000
 
 Following cartesian coordinates:
            Coordinates               Weight
  0.000000  0.000000  0.000000      1.000000
  0.047619  0.000000  0.047619     12.000000
  0.095238  0.000000  0.095238     12.000000
  0.142857  0.000000  0.142857     12.000000
  0.190476  0.000000  0.190476     12.000000
  0.238095  0.000000  0.238095     12.000000
  0.285714  0.000000  0.285714     12.000000
  0.333333  0.000000  0.333333     12.000000
  0.380952  0.000000  0.380952     12.000000
  0.428571  0.000000  0.428571     12.000000
  0.476190  0.000000  0.476190     12.000000
  0.047619  0.047619  0.095238     24.000000
  0.095238  0.047619  0.142857     48.000000
  0.142857  0.047619  0.190476     48.000000
  0.190476  0.047619  0.238095     48.000000
  0.238095  0.047619  0.285714     48.000000
  0.285714  0.047619  0.333333     48.000000
  0.333333  0.047619  0.380952     48.000000
  0.380952  0.047619  0.428571     48.000000
  0.428571  0.047619  0.476190     48.000000
 -0.523810  0.047619 -0.476190     24.000000
  0.095238  0.095238  0.190476     24.000000
  0.142857  0.095238  0.238095     48.000000
  0.190476  0.095238  0.285714     48.000000
  0.238095  0.095238  0.333333     48.000000
  0.285714  0.095238  0.380952     48.000000
  0.333333  0.095238  0.428571     48.000000
  0.380952  0.095238  0.476190     48.000000
 -0.571429  0.095238 -0.476190     48.000000
  0.142857  0.142857  0.285714     24.000000
  0.190476  0.142857  0.333333     48.000000
  0.238095  0.142857  0.380952     48.000000
  0.285714  0.142857  0.428571     48.000000
  0.333333  0.142857  0.476190     48.000000
 -0.619048  0.142857 -0.476190     48.000000
 -0.571429  0.142857 -0.428571     24.000000
  0.190476  0.190476  0.380952     24.000000
  0.238095  0.190476  0.428571     48.000000
  0.285714  0.190476  0.476190     48.000000
 -0.666667  0.190476 -0.476190     48.000000
 -0.619048  0.190476 -0.428571     48.000000
  0.238095  0.238095  0.476190     24.000000
 -0.714286  0.238095 -0.476190     48.000000
 -0.666667  0.238095 -0.428571     48.000000
 -0.619048  0.238095 -0.380952     24.000000
 -0.714286  0.285714 -0.428571     24.000000
 -0.666667  0.285714 -0.380952     48.000000
 -0.666667  0.333333 -0.333333      8.000000
  0.000000  0.000000  0.095238      6.000000
  0.047619  0.000000  0.142857     24.000000
  0.095238  0.000000  0.190476     24.000000
  0.142857  0.000000  0.238095     24.000000
  0.190476  0.000000  0.285714     24.000000
  0.238095  0.000000  0.333333     24.000000
  0.285714  0.000000  0.380952     24.000000
  0.333333  0.000000  0.428571     24.000000
  0.380952  0.000000  0.476190     24.000000
  0.428571  0.000000  0.523810     24.000000
  0.047619  0.047619  0.190476     24.000000
  0.095238  0.047619  0.238095     48.000000
  0.142857  0.047619  0.285714     48.000000
  0.190476  0.047619  0.333333     48.000000
  0.238095  0.047619  0.380952     48.000000
  0.285714  0.047619  0.428571     48.000000
  0.333333  0.047619  0.476190     48.000000
  0.380952  0.047619  0.523810     48.000000
 -0.571429  0.047619 -0.428571     24.000000
 -0.095238  0.095238  0.095238      8.000000
  0.095238  0.095238  0.285714     24.000000
  0.142857  0.095238  0.333333     48.000000
  0.190476  0.095238  0.380952     48.000000
  0.238095  0.095238  0.428571     48.000000
  0.285714  0.095238  0.476190     48.000000
  0.333333  0.095238  0.523810     48.000000
 -0.619048  0.095238 -0.428571     48.000000
 -0.142857  0.142857  0.095238     24.000000
  0.142857  0.142857  0.380952     24.000000
  0.190476  0.142857  0.428571     48.000000
  0.238095  0.142857  0.476190     48.000000
  0.285714  0.142857  0.523810     48.000000
 -0.666667  0.142857 -0.428571     48.000000
 -0.619048  0.142857 -0.380952     24.000000
 -0.190476  0.190476  0.095238     24.000000
 -0.142857  0.190476  0.142857     24.000000
  0.190476  0.190476  0.476190     24.000000
  0.238095  0.190476  0.523810     48.000000
 -0.714286  0.190476 -0.428571     48.000000
 -0.666667  0.190476 -0.380952     48.000000
 -0.238095  0.238095  0.095238     24.000000
 -0.190476  0.238095  0.142857     48.000000
 -0.761905  0.238095 -0.428571     24.000000
 -0.714286  0.238095 -0.380952     48.000000
 -0.666667  0.238095 -0.333333     24.000000
 -0.285714  0.285714  0.095238     24.000000
 -0.238095  0.285714  0.142857     48.000000
 -0.190476  0.285714  0.190476     24.000000
 -0.714286  0.285714 -0.333333     24.000000
 -0.333333  0.333333  0.095238     24.000000
 -0.285714  0.333333  0.142857     48.000000
 -0.238095  0.333333  0.190476     48.000000
 -0.380952  0.380952  0.095238     24.000000
 -0.333333  0.380952  0.142857     48.000000
 -0.285714  0.380952  0.190476     48.000000
 -0.238095  0.380952  0.238095     24.000000
 -0.428571  0.428571  0.095238     24.000000
 -0.380952  0.428571  0.142857     48.000000
 -0.333333  0.428571  0.190476     48.000000
 -0.285714  0.428571  0.238095     48.000000
  0.523810 -0.523810  0.095238     24.000000
  0.571429 -0.523810  0.142857     48.000000
  0.619048 -0.523810  0.190476     48.000000
  0.666667 -0.523810  0.238095     48.000000
  0.714286 -0.523810  0.285714     24.000000
  0.523810 -0.476190  0.142857     24.000000
  0.571429 -0.476190  0.190476     48.000000
  0.619048 -0.476190  0.238095     48.000000
  0.666667 -0.476190  0.285714     48.000000
  0.571429 -0.428571  0.238095     24.000000
  0.619048 -0.428571  0.285714     48.000000
  0.666667 -0.428571  0.333333     24.000000
  0.619048 -0.380952  0.333333     24.000000
  0.000000  0.000000  0.190476      6.000000
  0.047619  0.000000  0.238095     24.000000
  0.095238  0.000000  0.285714     24.000000
  0.142857  0.000000  0.333333     24.000000
  0.190476  0.000000  0.380952     24.000000
  0.238095  0.000000  0.428571     24.000000
  0.285714  0.000000  0.476190     24.000000
  0.333333  0.000000  0.523810     24.000000
  0.380952  0.000000  0.571429     24.000000
  0.047619  0.047619  0.285714     24.000000
  0.095238  0.047619  0.333333     48.000000
  0.142857  0.047619  0.380952     48.000000
  0.190476  0.047619  0.428571     48.000000
  0.238095  0.047619  0.476190     48.000000
  0.285714  0.047619  0.523810     48.000000
  0.333333  0.047619  0.571429     48.000000
 -0.619048  0.047619 -0.380952     24.000000
  0.095238  0.095238  0.380952     24.000000
  0.142857  0.095238  0.428571     48.000000
  0.190476  0.095238  0.476190     48.000000
  0.238095  0.095238  0.523810     48.000000
  0.285714  0.095238  0.571429     48.000000
 -0.666667  0.095238 -0.380952     48.000000
  0.142857  0.142857  0.476190     24.000000
  0.190476  0.142857  0.523810     48.000000
  0.238095  0.142857  0.571429     48.000000
 -0.714286  0.142857 -0.380952     48.000000
 -0.666667  0.142857 -0.333333     24.000000
 -0.190476  0.190476  0.190476      8.000000
  0.190476  0.190476  0.571429     24.000000
 -0.761905  0.190476 -0.380952     48.000000
 -0.714286  0.190476 -0.333333     48.000000
 -0.238095  0.238095  0.190476     24.000000
 -0.761905  0.238095 -0.333333     24.000000
 -0.714286  0.238095 -0.285714     24.000000
 -0.285714  0.285714  0.190476     24.000000
 -0.238095  0.285714  0.238095     24.000000
 -0.333333  0.333333  0.190476     24.000000
 -0.285714  0.333333  0.238095     48.000000
 -0.380952  0.380952  0.190476     24.000000
 -0.333333  0.380952  0.238095     48.000000
 -0.285714  0.380952  0.285714     24.000000
  0.571429 -0.571429  0.190476     24.000000
  0.619048 -0.571429  0.238095     48.000000
  0.666667 -0.571429  0.285714     48.000000
  0.523810 -0.523810  0.190476     24.000000
  0.571429 -0.523810  0.238095     48.000000
  0.619048 -0.523810  0.285714     48.000000
  0.666667 -0.523810  0.333333     24.000000
  0.523810 -0.476190  0.238095     24.000000
  0.571429 -0.476190  0.285714     48.000000
  0.619048 -0.476190  0.333333     48.000000
  0.571429 -0.428571  0.333333     24.000000
  0.619048 -0.428571  0.380952     24.000000
  0.000000  0.000000  0.285714      6.000000
  0.047619  0.000000  0.333333     24.000000
  0.095238  0.000000  0.380952     24.000000
  0.142857  0.000000  0.428571     24.000000
  0.190476  0.000000  0.476190     24.000000
  0.238095  0.000000  0.523810     24.000000
  0.285714  0.000000  0.571429     24.000000
  0.333333  0.000000  0.619048     24.000000
  0.047619  0.047619  0.380952     24.000000
  0.095238  0.047619  0.428571     48.000000
  0.142857  0.047619  0.476190     48.000000
  0.190476  0.047619  0.523810     48.000000
  0.238095  0.047619  0.571429     48.000000
  0.285714  0.047619  0.619048     48.000000
 -0.666667  0.047619 -0.333333     24.000000
  0.095238  0.095238  0.476190     24.000000
  0.142857  0.095238  0.523810     48.000000
  0.190476  0.095238  0.571429     48.000000
  0.238095  0.095238  0.619048     48.000000
 -0.714286  0.095238 -0.333333     48.000000
  0.142857  0.142857  0.571429     24.000000
  0.190476  0.142857  0.619048     48.000000
 -0.761905  0.142857 -0.333333     48.000000
 -0.714286  0.142857 -0.285714     24.000000
 -0.809524  0.190476 -0.333333     24.000000
 -0.761905  0.190476 -0.285714     48.000000
 -0.761905  0.238095 -0.238095      8.000000
 -0.285714  0.285714  0.285714      8.000000
 -0.333333  0.333333  0.285714     24.000000
  0.619048 -0.619048  0.285714     24.000000
  0.666667 -0.619048  0.333333     24.000000
  0.571429 -0.571429  0.285714     24.000000
  0.619048 -0.571429  0.333333     48.000000
  0.523810 -0.523810  0.285714     24.000000
  0.571429 -0.523810  0.333333     48.000000
  0.619048 -0.523810  0.380952     24.000000
  0.523810 -0.476190  0.333333     24.000000
  0.571429 -0.476190  0.380952     48.000000
  0.571429 -0.428571  0.428571      8.000000
  0.000000  0.000000  0.380952      6.000000
  0.047619  0.000000  0.428571     24.000000
  0.095238  0.000000  0.476190     24.000000
  0.142857  0.000000  0.523810     24.000000
  0.190476  0.000000  0.571429     24.000000
  0.238095  0.000000  0.619048     24.000000
  0.285714  0.000000  0.666667     24.000000
  0.047619  0.047619  0.476190     24.000000
  0.095238  0.047619  0.523810     48.000000
  0.142857  0.047619  0.571429     48.000000
  0.190476  0.047619  0.619048     48.000000
  0.238095  0.047619  0.666667     48.000000
 -0.714286  0.047619 -0.285714     24.000000
  0.095238  0.095238  0.571429     24.000000
  0.142857  0.095238  0.619048     48.000000
  0.190476  0.095238  0.666667     48.000000
 -0.761905  0.095238 -0.285714     48.000000
  0.142857  0.142857  0.666667     24.000000
 -0.809524  0.142857 -0.285714     48.000000
 -0.761905  0.142857 -0.238095     24.000000
 -0.809524  0.190476 -0.238095     24.000000
  0.619048 -0.619048  0.380952      8.000000
  0.571429 -0.571429  0.380952     24.000000
  0.523810 -0.523810  0.380952     24.000000
  0.571429 -0.523810  0.428571     24.000000
  0.523810 -0.476190  0.428571     24.000000
  0.000000  0.000000  0.476190      6.000000
  0.047619  0.000000  0.523810     24.000000
  0.095238  0.000000  0.571429     24.000000
  0.142857  0.000000  0.619048     24.000000
  0.190476  0.000000  0.666667     24.000000
  0.238095  0.000000  0.714286     24.000000
  0.047619  0.047619  0.571429     24.000000
  0.095238  0.047619  0.619048     48.000000
  0.142857  0.047619  0.666667     48.000000
  0.190476  0.047619  0.714286     48.000000
 -0.761905  0.047619 -0.238095     24.000000
  0.095238  0.095238  0.666667     24.000000
  0.142857  0.095238  0.714286     48.000000
 -0.809524  0.095238 -0.238095     48.000000
 -0.857143  0.142857 -0.238095     24.000000
 -0.809524  0.142857 -0.190476     24.000000
  0.523810 -0.523810  0.476190      8.000000
  0.000000  0.000000  0.571429      6.000000
  0.047619  0.000000  0.619048     24.000000
  0.095238  0.000000  0.666667     24.000000
  0.142857  0.000000  0.714286     24.000000
  0.190476  0.000000  0.761905     24.000000
  0.047619  0.047619  0.666667     24.000000
  0.095238  0.047619  0.714286     48.000000
  0.142857  0.047619  0.761905     48.000000
 -0.809524  0.047619 -0.190476     24.000000
  0.095238  0.095238  0.761905     24.000000
 -0.857143  0.095238 -0.190476     48.000000
 -0.857143  0.142857 -0.142857      8.000000
  0.000000  0.000000  0.666667      6.000000
  0.047619  0.000000  0.714286     24.000000
  0.095238  0.000000  0.761905     24.000000
  0.142857  0.000000  0.809524     24.000000
  0.047619  0.047619  0.761905     24.000000
  0.095238  0.047619  0.809524     48.000000
 -0.857143  0.047619 -0.142857     24.000000
 -0.904762  0.095238 -0.142857     24.000000
  0.000000  0.000000  0.761905      6.000000
  0.047619  0.000000  0.809524     24.000000
  0.095238  0.000000  0.857143     24.000000
  0.047619  0.047619  0.857143     24.000000
 -0.904762  0.047619 -0.095238     24.000000
  0.000000  0.000000  0.857143      6.000000
  0.047619  0.000000  0.904762     24.000000
 -0.952381  0.047619 -0.047619      8.000000
  0.000000  0.000000  0.952381      6.000000
 
 TETIRR: Found  10986 inequivalent tetrahedra from    55566


--------------------------------------------------------------------------------------------------------




 Dimension of arrays:
   k-points           NKPTS =    286   k-points in BZ     NKDIM =    286   number of bands    NBANDS=     16
   number of dos      NEDOS =    301   number of ions     NIONS =      1
   non local maximal  LDIM  =      6   non local SUM 2l+1 LMDIM =     18
   total plane-waves  NPLWV =   2744
   max r-space proj   IRMAX =      1   max aug-charges    IRDMAX=  55198
   dimension x,y,z NGX =    14 NGY =   14 NGZ =   14
   dimension x,y,z NGXF=    28 NGYF=   28 NGZF=   28
   support grid    NGXF=    56 NGYF=   56 NGZF=   56
   ions per type =               1
   NGX,Y,Z   is equivalent  to a cutoff of   9.36,  9.36,  9.36 a.u.
   NGXF,Y,Z  is equivalent  to a cutoff of  18.73, 18.73, 18.73 a.u.

 SYSTEM =  OPT                                     
 POSCAR =  Fe                                      

 Startparameter for this run:
   NWRITE =      2    write-flag & timer
   PREC   = normal    normal or accurate (medium, high low for compatibility)
   ISTART =      0    job   : 0-new  1-cont  2-samecut
   ICHARG =      2    charge: 1-file 2-atom 10-const
   ISPIN  =      2    spin polarized calculation?
   LNONCOLLINEAR =      F non collinear calculations
   LSORBIT =      F    spin-orbit coupling
   INIWAV =      1    electr: 0-lowe 1-rand  2-diag
   LASPH  =      F    aspherical Exc in radial PAW
   METAGGA=      F    non-selfconsistent MetaGGA calc.

 Electronic Relaxation 1
   ENCUT  =  550.0 eV  40.42 Ry    6.36 a.u.   4.75  4.75  4.75*2*pi/ulx,y,z
   ENINI  =  550.0     initial cutoff
   ENAUG  =  578.3 eV  augmentation charge cutoff
   NELM   =    300;   NELMIN=  2; NELMDL=  6     # of ELM steps 
   EDIFF  = 0.1E-06   stopping-criterion for ELM
   LREAL  =      F    real-space projection
   NLSPLINE    = F    spline interpolate recip. space projectors
   LCOMPAT=      F    compatible to vasp.4.4
   GGA_COMPAT  = T    GGA compatible to vasp.4.4-vasp.4.6
   LMAXPAW     = -100 max onsite density
   LMAXMIX     =    2 max onsite mixed and CHGCAR
   VOSKOWN=      0    Vosko Wilk Nusair interpolation
   ROPT   =    0.00000
 Ionic relaxation
   EDIFFG = -.1E-03   stopping-criterion for IOM
   NSW    =      0    number of steps for IOM
   NBLOCK =      1;   KBLOCK =      1    inner block; outer block 
   IBRION =     -1    ionic relax: 0-MD 1-quasi-New 2-CG
   NFREE  =      0    steps in history (QN), initial steepest desc. (CG)
   ISIF   =      3    stress and relaxation
   IWAVPR =     10    prediction:  0-non 1-charg 2-wave 3-comb
   ISYM   =      2    0-nonsym 1-usesym 2-fastsym
   LCORR  =      T    Harris-Foulkes like correction to forces

   POTIM  = 0.4000    time-step for ionic-motion
   TEIN   =    0.0    initial temperature
   TEBEG  =    0.0;   TEEND  =   0.0 temperature during run
   SMASS  =  -3.00    Nose mass-parameter (am)
   estimated Nose-frequenzy (Omega)   =  0.10E-29 period in steps =****** mass=  -0.141E-27a.u.
   SCALEE = 1.0000    scale energy and forces
   NPACO  =    256;   APACO  = 16.0  distance and # of slots for P.C.
   PSTRESS=    0.0 pullay stress

  Mass of Ions in am
   POMASS =  55.85
  Ionic Valenz
   ZVAL   =  14.00
  Atomic Wigner-Seitz radii
   RWIGS  =  -1.00
  virtual crystal weights 
   VCA    =   1.00
   NELECT =      14.0000    total number of electrons
   NUPDOWN=      -1.0000    fix difference up-down

 DOS related values:
   EMIN   =  10.00;   EMAX   =-10.00  energy-range for DOS
   EFERMI =   0.00
   ISMEAR =    -5;   SIGMA  =   0.10  broadening in eV -4-tet -1-fermi 0-gaus

 Electronic relaxation 2 (details)
   IALGO  =     68    algorithm
   LDIAG  =      T    sub-space diagonalisation (order eigenvalues)
   LSUBROT=      F    optimize rotation matrix (better conditioning)
   TURBO    =      0    0=normal 1=particle mesh
   IRESTART =      0    0=no restart 2=restart with 2 vectors
   NREBOOT  =      0    no. of reboots
   NMIN     =      0    reboot dimension
   EREF     =   0.00    reference energy to select bands
   IMIX   =      4    mixing-type and parameters
     AMIX     =   0.40;   BMIX     =  1.00
     AMIX_MAG =   1.60;   BMIX_MAG =  1.00
     AMIN     =   0.10
     WC   =   100.;   INIMIX=   1;  MIXPRE=   1;  MAXMIX= -45

 Intra band minimization:
   WEIMIN = 0.0000     energy-eigenvalue tresh-hold
   EBREAK =  0.16E-08  absolut break condition
   DEPER  =   0.30     relativ break condition  

   TIME   =   0.40     timestep for ELM

  volume/ion in A,a.u.               =      11.82        79.76
  Fermi-wavevector in a.u.,A,eV,Ry     =   1.732124  3.273239 40.820921  3.000253
  Thomas-Fermi vector in A             =   2.806360
 
 Write flags
   LWAVE        =      F    write WAVECAR
   LDOWNSAMPLE  =      F    k-point downsampling of WAVECAR
   LCHARG       =      T    write CHGCAR
   LVTOT        =      F    write LOCPOT, total local potential
   LVHAR        =      F    write LOCPOT, Hartree potential only
   LELF         =      F    write electronic localiz. function (ELF)
   LORBIT       =     11    0 simple, 1 ext, 2 COOP (PROOUT), +10 PAW based schemes


 Dipole corrections
   LMONO  =      F    monopole corrections only (constant potential shift)
   LDIPOL =      F    correct potential (dipole corrections)
   IDIPOL =      0    1-x, 2-y, 3-z, 4-all directions 
   EPSILON=  1.0000000 bulk dielectric constant

 Exchange correlation treatment:
   GGA     =    --    GGA type
   LEXCH   =     8    internal setting for exchange type
   VOSKOWN=      0    Vosko Wilk Nusair interpolation
   LHFCALC =     F    Hartree Fock is set to
   LHFONE  =     F    Hartree Fock one center treatment
   AEXX    =    0.0000 exact exchange contribution

 Linear response parameters
   LEPSILON=     F    determine dielectric tensor
   LRPA    =     F    only Hartree local field effects (RPA)
   LNABLA  =     F    use nabla operator in PAW spheres
   LVEL    =     F    velocity operator in full k-point grid
   LINTERFAST=   F  fast interpolation
   KINTER  =     0    interpolate to denser k-point grid
   CSHIFT  =0.1000    complex shift for real part using Kramers Kronig
   OMEGAMAX=  -1.0    maximum frequency
   DEG_THRESHOLD= 0.2000000E-02 threshold for treating states as degnerate
   RTIME   =   -0.100 relaxation time in fs
  (WPLASMAI=    0.000 imaginary part of plasma frequency in eV, 0.658/RTIME)
   DFIELD  = 0.0000000 0.0000000 0.0000000 field for delta impulse in time
 
 Orbital magnetization related:
   ORBITALMAG=     F  switch on orbital magnetization
   LCHIMAG   =     F  perturbation theory with respect to B field
   DQ        =  0.001000  dq finite difference perturbation B field
   LLRAUG    =     F  two centre corrections for induced B field



--------------------------------------------------------------------------------------------------------


 Static calculation
 charge density and potential will be updated during run
 spin polarized calculation
 RMM-DIIS sequential band-by-band and
  variant of blocked Davidson during initial phase
 perform sub-space diagonalisation
    before iterative eigenvector-optimisation
 modified Broyden-mixing scheme, WC =      100.0
 initial mixing is a Kerker type mixing with AMIX =  0.4000 and BMIX =      1.0000
 Hartree-type preconditioning will be used
 using additional bands            9
 reciprocal scheme for non local part
 use partial core corrections
 calculate Harris-corrections to forces 
   (improved forces if not selfconsistent)
 use gradient corrections 
 use of overlap-Matrix (Vanderbilt PP)
 Fermi weights with tetrahedron method with Bloechl corrections


--------------------------------------------------------------------------------------------------------


  energy-cutoff  :      550.00
  volume of cell :       11.82
      direct lattice vectors                 reciprocal lattice vectors
     1.435000000  1.435000000  1.435000000     0.348432056  0.000000000  0.348432056
    -1.435000000  1.435000000  1.435000000    -0.348432056  0.348432056  0.000000000
    -1.435000000 -1.435000000  1.435000000     0.000000000 -0.348432056  0.348432056

  length of vectors
     2.485492909  2.485492909  2.485492909     0.492757339  0.492757339  0.492757339


 
 k-points in units of 2pi/SCALE and weight: Automatic Mesh # Generates Automatically
   0.00000000  0.00000000  0.00000000       0.000
   0.04761905  0.00000000  0.04761905       0.001
   0.09523810  0.00000000  0.09523810       0.001
   0.14285714  0.00000000  0.14285714       0.001
   0.19047619  0.00000000  0.19047619       0.001
   0.23809524  0.00000000  0.23809524       0.001
   0.28571429  0.00000000  0.28571429       0.001
   0.33333333  0.00000000  0.33333333       0.001
   0.38095238  0.00000000  0.38095238       0.001
   0.42857143  0.00000000  0.42857143       0.001
   0.47619048  0.00000000  0.47619048       0.001
   0.04761905  0.04761905  0.09523810       0.003
   0.09523810  0.04761905  0.14285714       0.005
   0.14285714  0.04761905  0.19047619       0.005
   0.19047619  0.04761905  0.23809524       0.005
   0.23809524  0.04761905  0.28571429       0.005
   0.28571429  0.04761905  0.33333333       0.005
   0.33333333  0.04761905  0.38095238       0.005
   0.38095238  0.04761905  0.42857143       0.005
   0.42857143  0.04761905  0.47619048       0.005
  -0.52380952  0.04761905 -0.47619048       0.003
   0.09523810  0.09523810  0.19047619       0.003
   0.14285714  0.09523810  0.23809524       0.005
   0.19047619  0.09523810  0.28571429       0.005
   0.23809524  0.09523810  0.33333333       0.005
   0.28571429  0.09523810  0.38095238       0.005
   0.33333333  0.09523810  0.42857143       0.005
   0.38095238  0.09523810  0.47619048       0.005
  -0.57142857  0.09523810 -0.47619048       0.005
   0.14285714  0.14285714  0.28571429       0.003
   0.19047619  0.14285714  0.33333333       0.005
   0.23809524  0.14285714  0.38095238       0.005
   0.28571429  0.14285714  0.42857143       0.005
   0.33333333  0.14285714  0.47619048       0.005
  -0.61904762  0.14285714 -0.47619048       0.005
  -0.57142857  0.14285714 -0.42857143       0.003
   0.19047619  0.19047619  0.38095238       0.003
   0.23809524  0.19047619  0.42857143       0.005
   0.28571429  0.19047619  0.47619048       0.005
  -0.66666667  0.19047619 -0.47619048       0.005
  -0.61904762  0.19047619 -0.42857143       0.005
   0.23809524  0.23809524  0.47619048       0.003
  -0.71428571  0.23809524 -0.47619048       0.005
  -0.66666667  0.23809524 -0.42857143       0.005
  -0.61904762  0.23809524 -0.38095238       0.003
  -0.71428571  0.28571429 -0.42857143       0.003
  -0.66666667  0.28571429 -0.38095238       0.005
  -0.66666667  0.33333333 -0.33333333       0.001
   0.00000000  0.00000000  0.09523810       0.001
   0.04761905  0.00000000  0.14285714       0.003
   0.09523810  0.00000000  0.19047619       0.003
   0.14285714  0.00000000  0.23809524       0.003
   0.19047619  0.00000000  0.28571429       0.003
   0.23809524  0.00000000  0.33333333       0.003
   0.28571429  0.00000000  0.38095238       0.003
   0.33333333  0.00000000  0.42857143       0.003
   0.38095238  0.00000000  0.47619048       0.003
   0.42857143  0.00000000  0.52380952       0.003
   0.04761905  0.04761905  0.19047619       0.003
   0.09523810  0.04761905  0.23809524       0.005
   0.14285714  0.04761905  0.28571429       0.005
   0.19047619  0.04761905  0.33333333       0.005
   0.23809524  0.04761905  0.38095238       0.005
   0.28571429  0.04761905  0.42857143       0.005
   0.33333333  0.04761905  0.47619048       0.005
   0.38095238  0.04761905  0.52380952       0.005
  -0.57142857  0.04761905 -0.42857143       0.003
  -0.09523810  0.09523810  0.09523810       0.001
   0.09523810  0.09523810  0.28571429       0.003
   0.14285714  0.09523810  0.33333333       0.005
   0.19047619  0.09523810  0.38095238       0.005
   0.23809524  0.09523810  0.42857143       0.005
   0.28571429  0.09523810  0.47619048       0.005
   0.33333333  0.09523810  0.52380952       0.005
  -0.61904762  0.09523810 -0.42857143       0.005
  -0.14285714  0.14285714  0.09523810       0.003
   0.14285714  0.14285714  0.38095238       0.003
   0.19047619  0.14285714  0.42857143       0.005
   0.23809524  0.14285714  0.47619048       0.005
   0.28571429  0.14285714  0.52380952       0.005
  -0.66666667  0.14285714 -0.42857143       0.005
  -0.61904762  0.14285714 -0.38095238       0.003
  -0.19047619  0.19047619  0.09523810       0.003
  -0.14285714  0.19047619  0.14285714       0.003
   0.19047619  0.19047619  0.47619048       0.003
   0.23809524  0.19047619  0.52380952       0.005
  -0.71428571  0.19047619 -0.42857143       0.005
  -0.66666667  0.19047619 -0.38095238       0.005
  -0.23809524  0.23809524  0.09523810       0.003
  -0.19047619  0.23809524  0.14285714       0.005
  -0.76190476  0.23809524 -0.42857143       0.003
  -0.71428571  0.23809524 -0.38095238       0.005
  -0.66666667  0.23809524 -0.33333333       0.003
  -0.28571429  0.28571429  0.09523810       0.003
  -0.23809524  0.28571429  0.14285714       0.005
  -0.19047619  0.28571429  0.19047619       0.003
  -0.71428571  0.28571429 -0.33333333       0.003
  -0.33333333  0.33333333  0.09523810       0.003
  -0.28571429  0.33333333  0.14285714       0.005
  -0.23809524  0.33333333  0.19047619       0.005
  -0.38095238  0.38095238  0.09523810       0.003
  -0.33333333  0.38095238  0.14285714       0.005
  -0.28571429  0.38095238  0.19047619       0.005
  -0.23809524  0.38095238  0.23809524       0.003
  -0.42857143  0.42857143  0.09523810       0.003
  -0.38095238  0.42857143  0.14285714       0.005
  -0.33333333  0.42857143  0.19047619       0.005
  -0.28571429  0.42857143  0.23809524       0.005
   0.52380952 -0.52380952  0.09523810       0.003
   0.57142857 -0.52380952  0.14285714       0.005
   0.61904762 -0.52380952  0.19047619       0.005
   0.66666667 -0.52380952  0.23809524       0.005
   0.71428571 -0.52380952  0.28571429       0.003
   0.52380952 -0.47619048  0.14285714       0.003
   0.57142857 -0.47619048  0.19047619       0.005
   0.61904762 -0.47619048  0.23809524       0.005
   0.66666667 -0.47619048  0.28571429       0.005
   0.57142857 -0.42857143  0.23809524       0.003
   0.61904762 -0.42857143  0.28571429       0.005
   0.66666667 -0.42857143  0.33333333       0.003
   0.61904762 -0.38095238  0.33333333       0.003
   0.00000000  0.00000000  0.19047619       0.001
   0.04761905  0.00000000  0.23809524       0.003
   0.09523810  0.00000000  0.28571429       0.003
   0.14285714  0.00000000  0.33333333       0.003
   0.19047619  0.00000000  0.38095238       0.003
   0.23809524  0.00000000  0.42857143       0.003
   0.28571429  0.00000000  0.47619048       0.003
   0.33333333  0.00000000  0.52380952       0.003
   0.38095238  0.00000000  0.57142857       0.003
   0.04761905  0.04761905  0.28571429       0.003
   0.09523810  0.04761905  0.33333333       0.005
   0.14285714  0.04761905  0.38095238       0.005
   0.19047619  0.04761905  0.42857143       0.005
   0.23809524  0.04761905  0.47619048       0.005
   0.28571429  0.04761905  0.52380952       0.005
   0.33333333  0.04761905  0.57142857       0.005
  -0.61904762  0.04761905 -0.38095238       0.003
   0.09523810  0.09523810  0.38095238       0.003
   0.14285714  0.09523810  0.42857143       0.005
   0.19047619  0.09523810  0.47619048       0.005
   0.23809524  0.09523810  0.52380952       0.005
   0.28571429  0.09523810  0.57142857       0.005
  -0.66666667  0.09523810 -0.38095238       0.005
   0.14285714  0.14285714  0.47619048       0.003
   0.19047619  0.14285714  0.52380952       0.005
   0.23809524  0.14285714  0.57142857       0.005
  -0.71428571  0.14285714 -0.38095238       0.005
  -0.66666667  0.14285714 -0.33333333       0.003
  -0.19047619  0.19047619  0.19047619       0.001
   0.19047619  0.19047619  0.57142857       0.003
  -0.76190476  0.19047619 -0.38095238       0.005
  -0.71428571  0.19047619 -0.33333333       0.005
  -0.23809524  0.23809524  0.19047619       0.003
  -0.76190476  0.23809524 -0.33333333       0.003
  -0.71428571  0.23809524 -0.28571429       0.003
  -0.28571429  0.28571429  0.19047619       0.003
  -0.23809524  0.28571429  0.23809524       0.003
  -0.33333333  0.33333333  0.19047619       0.003
  -0.28571429  0.33333333  0.23809524       0.005
  -0.38095238  0.38095238  0.19047619       0.003
  -0.33333333  0.38095238  0.23809524       0.005
  -0.28571429  0.38095238  0.28571429       0.003
   0.57142857 -0.57142857  0.19047619       0.003
   0.61904762 -0.57142857  0.23809524       0.005
   0.66666667 -0.57142857  0.28571429       0.005
   0.52380952 -0.52380952  0.19047619       0.003
   0.57142857 -0.52380952  0.23809524       0.005
   0.61904762 -0.52380952  0.28571429       0.005
   0.66666667 -0.52380952  0.33333333       0.003
   0.52380952 -0.47619048  0.23809524       0.003
   0.57142857 -0.47619048  0.28571429       0.005
   0.61904762 -0.47619048  0.33333333       0.005
   0.57142857 -0.42857143  0.33333333       0.003
   0.61904762 -0.42857143  0.38095238       0.003
   0.00000000  0.00000000  0.28571429       0.001
   0.04761905  0.00000000  0.33333333       0.003
   0.09523810  0.00000000  0.38095238       0.003
   0.14285714  0.00000000  0.42857143       0.003
   0.19047619  0.00000000  0.47619048       0.003
   0.23809524  0.00000000  0.52380952       0.003
   0.28571429  0.00000000  0.57142857       0.003
   0.33333333  0.00000000  0.61904762       0.003
   0.04761905  0.04761905  0.38095238       0.003
   0.09523810  0.04761905  0.42857143       0.005
   0.14285714  0.04761905  0.47619048       0.005
   0.19047619  0.04761905  0.52380952       0.005
   0.23809524  0.04761905  0.57142857       0.005
   0.28571429  0.04761905  0.61904762       0.005
  -0.66666667  0.04761905 -0.33333333       0.003
   0.09523810  0.09523810  0.47619048       0.003
   0.14285714  0.09523810  0.52380952       0.005
   0.19047619  0.09523810  0.57142857       0.005
   0.23809524  0.09523810  0.61904762       0.005
  -0.71428571  0.09523810 -0.33333333       0.005
   0.14285714  0.14285714  0.57142857       0.003
   0.19047619  0.14285714  0.61904762       0.005
  -0.76190476  0.14285714 -0.33333333       0.005
  -0.71428571  0.14285714 -0.28571429       0.003
  -0.80952381  0.19047619 -0.33333333       0.003
  -0.76190476  0.19047619 -0.28571429       0.005
  -0.76190476  0.23809524 -0.23809524       0.001
  -0.28571429  0.28571429  0.28571429       0.001
  -0.33333333  0.33333333  0.28571429       0.003
   0.61904762 -0.61904762  0.28571429       0.003
   0.66666667 -0.61904762  0.33333333       0.003
   0.57142857 -0.57142857  0.28571429       0.003
   0.61904762 -0.57142857  0.33333333       0.005
   0.52380952 -0.52380952  0.28571429       0.003
   0.57142857 -0.52380952  0.33333333       0.005
   0.61904762 -0.52380952  0.38095238       0.003
   0.52380952 -0.47619048  0.33333333       0.003
   0.57142857 -0.47619048  0.38095238       0.005
   0.57142857 -0.42857143  0.42857143       0.001
   0.00000000  0.00000000  0.38095238       0.001
   0.04761905  0.00000000  0.42857143       0.003
   0.09523810  0.00000000  0.47619048       0.003
   0.14285714  0.00000000  0.52380952       0.003
   0.19047619  0.00000000  0.57142857       0.003
   0.23809524  0.00000000  0.61904762       0.003
   0.28571429  0.00000000  0.66666667       0.003
   0.04761905  0.04761905  0.47619048       0.003
   0.09523810  0.04761905  0.52380952       0.005
   0.14285714  0.04761905  0.57142857       0.005
   0.19047619  0.04761905  0.61904762       0.005
   0.23809524  0.04761905  0.66666667       0.005
  -0.71428571  0.04761905 -0.28571429       0.003
   0.09523810  0.09523810  0.57142857       0.003
   0.14285714  0.09523810  0.61904762       0.005
   0.19047619  0.09523810  0.66666667       0.005
  -0.76190476  0.09523810 -0.28571429       0.005
   0.14285714  0.14285714  0.66666667       0.003
  -0.80952381  0.14285714 -0.28571429       0.005
  -0.76190476  0.14285714 -0.23809524       0.003
  -0.80952381  0.19047619 -0.23809524       0.003
   0.61904762 -0.61904762  0.38095238       0.001
   0.57142857 -0.57142857  0.38095238       0.003
   0.52380952 -0.52380952  0.38095238       0.003
   0.57142857 -0.52380952  0.42857143       0.003
   0.52380952 -0.47619048  0.42857143       0.003
   0.00000000  0.00000000  0.47619048       0.001
   0.04761905  0.00000000  0.52380952       0.003
   0.09523810  0.00000000  0.57142857       0.003
   0.14285714  0.00000000  0.61904762       0.003
   0.19047619  0.00000000  0.66666667       0.003
   0.23809524  0.00000000  0.71428571       0.003
   0.04761905  0.04761905  0.57142857       0.003
   0.09523810  0.04761905  0.61904762       0.005
   0.14285714  0.04761905  0.66666667       0.005
   0.19047619  0.04761905  0.71428571       0.005
  -0.76190476  0.04761905 -0.23809524       0.003
   0.09523810  0.09523810  0.66666667       0.003
   0.14285714  0.09523810  0.71428571       0.005
  -0.80952381  0.09523810 -0.23809524       0.005
  -0.85714286  0.14285714 -0.23809524       0.003
  -0.80952381  0.14285714 -0.19047619       0.003
   0.52380952 -0.52380952  0.47619048       0.001
   0.00000000  0.00000000  0.57142857       0.001
   0.04761905  0.00000000  0.61904762       0.003
   0.09523810  0.00000000  0.66666667       0.003
   0.14285714  0.00000000  0.71428571       0.003
   0.19047619  0.00000000  0.76190476       0.003
   0.04761905  0.04761905  0.66666667       0.003
   0.09523810  0.04761905  0.71428571       0.005
   0.14285714  0.04761905  0.76190476       0.005
  -0.80952381  0.04761905 -0.19047619       0.003
   0.09523810  0.09523810  0.76190476       0.003
  -0.85714286  0.09523810 -0.19047619       0.005
  -0.85714286  0.14285714 -0.14285714       0.001
   0.00000000  0.00000000  0.66666667       0.001
   0.04761905  0.00000000  0.71428571       0.003
   0.09523810  0.00000000  0.76190476       0.003
   0.14285714  0.00000000  0.80952381       0.003
   0.04761905  0.04761905  0.76190476       0.003
   0.09523810  0.04761905  0.80952381       0.005
  -0.85714286  0.04761905 -0.14285714       0.003
  -0.90476190  0.09523810 -0.14285714       0.003
   0.00000000  0.00000000  0.76190476       0.001
   0.04761905  0.00000000  0.80952381       0.003
   0.09523810  0.00000000  0.85714286       0.003
   0.04761905  0.04761905  0.85714286       0.003
  -0.90476190  0.04761905 -0.09523810       0.003
   0.00000000  0.00000000  0.85714286       0.001
   0.04761905  0.00000000  0.90476190       0.003
  -0.95238095  0.04761905 -0.04761905       0.001
   0.00000000  0.00000000  0.95238095       0.001
 
 k-points in reciprocal lattice and weights: Automatic Mesh # Generates Automatically
   0.00000000  0.00000000  0.00000000       0.000
   0.04761905  0.00000000  0.00000000       0.001
   0.09523810  0.00000000  0.00000000       0.001
   0.14285714  0.00000000  0.00000000       0.001
   0.19047619  0.00000000  0.00000000       0.001
   0.23809524  0.00000000  0.00000000       0.001
   0.28571429  0.00000000  0.00000000       0.001
   0.33333333  0.00000000  0.00000000       0.001
   0.38095238  0.00000000  0.00000000       0.001
   0.42857143  0.00000000  0.00000000       0.001
   0.47619048  0.00000000  0.00000000       0.001
   0.09523810  0.04761905  0.00000000       0.003
   0.14285714  0.04761905  0.00000000       0.005
   0.19047619  0.04761905  0.00000000       0.005
   0.23809524  0.04761905  0.00000000       0.005
   0.28571429  0.04761905  0.00000000       0.005
   0.33333333  0.04761905  0.00000000       0.005
   0.38095238  0.04761905  0.00000000       0.005
   0.42857143  0.04761905  0.00000000       0.005
   0.47619048  0.04761905 -0.00000000       0.005
  -0.47619048  0.04761905 -0.00000000       0.003
   0.19047619  0.09523810  0.00000000       0.003
   0.23809524  0.09523810  0.00000000       0.005
   0.28571429  0.09523810  0.00000000       0.005
   0.33333333  0.09523810  0.00000000       0.005
   0.38095238  0.09523810  0.00000000       0.005
   0.42857143  0.09523810  0.00000000       0.005
   0.47619048  0.09523810  0.00000000       0.005
  -0.47619048  0.09523810  0.00000000       0.005
   0.28571429  0.14285714  0.00000000       0.003
   0.33333333  0.14285714 -0.00000000       0.005
   0.38095238  0.14285714  0.00000000       0.005
   0.42857143  0.14285714 -0.00000000       0.005
   0.47619048  0.14285714 -0.00000000       0.005
  -0.47619048  0.14285714 -0.00000000       0.005
  -0.42857143  0.14285714 -0.00000000       0.003
   0.38095238  0.19047619  0.00000000       0.003
   0.42857143  0.19047619 -0.00000000       0.005
   0.47619048  0.19047619  0.00000000       0.005
  -0.47619048  0.19047619  0.00000000       0.005
  -0.42857143  0.19047619  0.00000000       0.005
   0.47619048  0.23809524  0.00000000       0.003
  -0.47619048  0.23809524 -0.00000000       0.005
  -0.42857143  0.23809524 -0.00000000       0.005
  -0.38095238  0.23809524 -0.00000000       0.003
  -0.42857143  0.28571429 -0.00000000       0.003
  -0.38095238  0.28571429 -0.00000000       0.005
  -0.33333333  0.33333333  0.00000000       0.001
   0.04761905  0.04761905  0.04761905       0.001
   0.09523810  0.04761905  0.04761905       0.003
   0.14285714  0.04761905  0.04761905       0.003
   0.19047619  0.04761905  0.04761905       0.003
   0.23809524  0.04761905  0.04761905       0.003
   0.28571429  0.04761905  0.04761905       0.003
   0.33333333  0.04761905  0.04761905       0.003
   0.38095238  0.04761905  0.04761905       0.003
   0.42857143  0.04761905  0.04761905       0.003
   0.47619048  0.04761905  0.04761905       0.003
   0.14285714  0.09523810  0.04761905       0.003
   0.19047619  0.09523810  0.04761905       0.005
   0.23809524  0.09523810  0.04761905       0.005
   0.28571429  0.09523810  0.04761905       0.005
   0.33333333  0.09523810  0.04761905       0.005
   0.38095238  0.09523810  0.04761905       0.005
   0.42857143  0.09523810  0.04761905       0.005
   0.47619048  0.09523810  0.04761905       0.005
  -0.47619048  0.09523810  0.04761905       0.003
   0.04761905  0.14285714  0.04761905       0.001
   0.23809524  0.14285714  0.04761905       0.003
   0.28571429  0.14285714  0.04761905       0.005
   0.33333333  0.14285714  0.04761905       0.005
   0.38095238  0.14285714  0.04761905       0.005
   0.42857143  0.14285714  0.04761905       0.005
   0.47619048  0.14285714  0.04761905       0.005
  -0.47619048  0.14285714  0.04761905       0.005
   0.04761905  0.19047619  0.04761905       0.003
   0.33333333  0.19047619  0.04761905       0.003
   0.38095238  0.19047619  0.04761905       0.005
   0.42857143  0.19047619  0.04761905       0.005
   0.47619048  0.19047619  0.04761905       0.005
  -0.47619048  0.19047619  0.04761905       0.005
  -0.42857143  0.19047619  0.04761905       0.003
   0.04761905  0.23809524  0.04761905       0.003
   0.09523810  0.23809524  0.04761905       0.003
   0.42857143  0.23809524  0.04761905       0.003
   0.47619048  0.23809524  0.04761905       0.005
  -0.47619048  0.23809524  0.04761905       0.005
  -0.42857143  0.23809524  0.04761905       0.005
   0.04761905  0.28571429  0.04761905       0.003
   0.09523810  0.28571429  0.04761905       0.005
  -0.47619048  0.28571429  0.04761905       0.003
  -0.42857143  0.28571429  0.04761905       0.005
  -0.38095238  0.28571429  0.04761905       0.003
   0.04761905  0.33333333  0.04761905       0.003
   0.09523810  0.33333333  0.04761905       0.005
   0.14285714  0.33333333  0.04761905       0.003
  -0.38095238  0.33333333  0.04761905       0.003
   0.04761905  0.38095238  0.04761905       0.003
   0.09523810  0.38095238  0.04761905       0.005
   0.14285714  0.38095238  0.04761905       0.005
   0.04761905  0.42857143  0.04761905       0.003
   0.09523810  0.42857143  0.04761905       0.005
   0.14285714  0.42857143  0.04761905       0.005
   0.19047619  0.42857143  0.04761905       0.003
   0.04761905  0.47619048  0.04761905       0.003
   0.09523810  0.47619048  0.04761905       0.005
   0.14285714  0.47619048  0.04761905       0.005
   0.19047619  0.47619048  0.04761905       0.005
   0.04761905 -0.47619048  0.04761905       0.003
   0.09523810 -0.47619048  0.04761905       0.005
   0.14285714 -0.47619048  0.04761905       0.005
   0.19047619 -0.47619048  0.04761905       0.005
   0.23809524 -0.47619048  0.04761905       0.003
   0.09523810 -0.42857143  0.04761905       0.003
   0.14285714 -0.42857143  0.04761905       0.005
   0.19047619 -0.42857143  0.04761905       0.005
   0.23809524 -0.42857143  0.04761905       0.005
   0.19047619 -0.38095238  0.04761905       0.003
   0.23809524 -0.38095238  0.04761905       0.005
   0.28571429 -0.38095238  0.04761905       0.003
   0.28571429 -0.33333333  0.04761905       0.003
   0.09523810  0.09523810  0.09523810       0.001
   0.14285714  0.09523810  0.09523810       0.003
   0.19047619  0.09523810  0.09523810       0.003
   0.23809524  0.09523810  0.09523810       0.003
   0.28571429  0.09523810  0.09523810       0.003
   0.33333333  0.09523810  0.09523810       0.003
   0.38095238  0.09523810  0.09523810       0.003
   0.42857143  0.09523810  0.09523810       0.003
   0.47619048  0.09523810  0.09523810       0.003
   0.19047619  0.14285714  0.09523810       0.003
   0.23809524  0.14285714  0.09523810       0.005
   0.28571429  0.14285714  0.09523810       0.005
   0.33333333  0.14285714  0.09523810       0.005
   0.38095238  0.14285714  0.09523810       0.005
   0.42857143  0.14285714  0.09523810       0.005
   0.47619048  0.14285714  0.09523810       0.005
  -0.47619048  0.14285714  0.09523810       0.003
   0.28571429  0.19047619  0.09523810       0.003
   0.33333333  0.19047619  0.09523810       0.005
   0.38095238  0.19047619  0.09523810       0.005
   0.42857143  0.19047619  0.09523810       0.005
   0.47619048  0.19047619  0.09523810       0.005
  -0.47619048  0.19047619  0.09523810       0.005
   0.38095238  0.23809524  0.09523810       0.003
   0.42857143  0.23809524  0.09523810       0.005
   0.47619048  0.23809524  0.09523810       0.005
  -0.47619048  0.23809524  0.09523810       0.005
  -0.42857143  0.23809524  0.09523810       0.003
   0.09523810  0.28571429  0.09523810       0.001
   0.47619048  0.28571429  0.09523810       0.003
  -0.47619048  0.28571429  0.09523810       0.005
  -0.42857143  0.28571429  0.09523810       0.005
   0.09523810  0.33333333  0.09523810       0.003
  -0.42857143  0.33333333  0.09523810       0.003
  -0.38095238  0.33333333  0.09523810       0.003
   0.09523810  0.38095238  0.09523810       0.003
   0.14285714  0.38095238  0.09523810       0.003
   0.09523810  0.42857143  0.09523810       0.003
   0.14285714  0.42857143  0.09523810       0.005
   0.09523810  0.47619048  0.09523810       0.003
   0.14285714  0.47619048  0.09523810       0.005
   0.19047619  0.47619048  0.09523810       0.003
   0.09523810 -0.47619048  0.09523810       0.003
   0.14285714 -0.47619048  0.09523810       0.005
   0.19047619 -0.47619048  0.09523810       0.005
   0.09523810 -0.42857143  0.09523810       0.003
   0.14285714 -0.42857143  0.09523810       0.005
   0.19047619 -0.42857143  0.09523810       0.005
   0.23809524 -0.42857143  0.09523810       0.003
   0.14285714 -0.38095238  0.09523810       0.003
   0.19047619 -0.38095238  0.09523810       0.005
   0.23809524 -0.38095238  0.09523810       0.005
   0.23809524 -0.33333333  0.09523810       0.003
   0.28571429 -0.33333333  0.09523810       0.003
   0.14285714  0.14285714  0.14285714       0.001
   0.19047619  0.14285714  0.14285714       0.003
   0.23809524  0.14285714  0.14285714       0.003
   0.28571429  0.14285714  0.14285714       0.003
   0.33333333  0.14285714  0.14285714       0.003
   0.38095238  0.14285714  0.14285714       0.003
   0.42857143  0.14285714  0.14285714       0.003
   0.47619048  0.14285714  0.14285714       0.003
   0.23809524  0.19047619  0.14285714       0.003
   0.28571429  0.19047619  0.14285714       0.005
   0.33333333  0.19047619  0.14285714       0.005
   0.38095238  0.19047619  0.14285714       0.005
   0.42857143  0.19047619  0.14285714       0.005
   0.47619048  0.19047619  0.14285714       0.005
  -0.47619048  0.19047619  0.14285714       0.003
   0.33333333  0.23809524  0.14285714       0.003
   0.38095238  0.23809524  0.14285714       0.005
   0.42857143  0.23809524  0.14285714       0.005
   0.47619048  0.23809524  0.14285714       0.005
  -0.47619048  0.23809524  0.14285714       0.005
   0.42857143  0.28571429  0.14285714       0.003
   0.47619048  0.28571429  0.14285714       0.005
  -0.47619048  0.28571429  0.14285714       0.005
  -0.42857143  0.28571429  0.14285714       0.003
  -0.47619048  0.33333333  0.14285714       0.003
  -0.42857143  0.33333333  0.14285714       0.005
  -0.38095238  0.38095238  0.14285714       0.001
   0.14285714  0.42857143  0.14285714       0.001
   0.14285714  0.47619048  0.14285714       0.003
   0.14285714 -0.47619048  0.14285714       0.003
   0.19047619 -0.47619048  0.14285714       0.003
   0.14285714 -0.42857143  0.14285714       0.003
   0.19047619 -0.42857143  0.14285714       0.005
   0.14285714 -0.38095238  0.14285714       0.003
   0.19047619 -0.38095238  0.14285714       0.005
   0.23809524 -0.38095238  0.14285714       0.003
   0.19047619 -0.33333333  0.14285714       0.003
   0.23809524 -0.33333333  0.14285714       0.005
   0.28571429 -0.28571429  0.14285714       0.001
   0.19047619  0.19047619  0.19047619       0.001
   0.23809524  0.19047619  0.19047619       0.003
   0.28571429  0.19047619  0.19047619       0.003
   0.33333333  0.19047619  0.19047619       0.003
   0.38095238  0.19047619  0.19047619       0.003
   0.42857143  0.19047619  0.19047619       0.003
   0.47619048  0.19047619  0.19047619       0.003
   0.28571429  0.23809524  0.19047619       0.003
   0.33333333  0.23809524  0.19047619       0.005
   0.38095238  0.23809524  0.19047619       0.005
   0.42857143  0.23809524  0.19047619       0.005
   0.47619048  0.23809524  0.19047619       0.005
  -0.47619048  0.23809524  0.19047619       0.003
   0.38095238  0.28571429  0.19047619       0.003
   0.42857143  0.28571429  0.19047619       0.005
   0.47619048  0.28571429  0.19047619       0.005
  -0.47619048  0.28571429  0.19047619       0.005
   0.47619048  0.33333333  0.19047619       0.003
  -0.47619048  0.33333333  0.19047619       0.005
  -0.42857143  0.33333333  0.19047619       0.003
  -0.42857143  0.38095238  0.19047619       0.003
   0.19047619 -0.42857143  0.19047619       0.001
   0.19047619 -0.38095238  0.19047619       0.003
   0.19047619 -0.33333333  0.19047619       0.003
   0.23809524 -0.33333333  0.19047619       0.003
   0.23809524 -0.28571429  0.19047619       0.003
   0.23809524  0.23809524  0.23809524       0.001
   0.28571429  0.23809524  0.23809524       0.003
   0.33333333  0.23809524  0.23809524       0.003
   0.38095238  0.23809524  0.23809524       0.003
   0.42857143  0.23809524  0.23809524       0.003
   0.47619048  0.23809524  0.23809524       0.003
   0.33333333  0.28571429  0.23809524       0.003
   0.38095238  0.28571429  0.23809524       0.005
   0.42857143  0.28571429  0.23809524       0.005
   0.47619048  0.28571429  0.23809524       0.005
  -0.47619048  0.28571429  0.23809524       0.003
   0.42857143  0.33333333  0.23809524       0.003
   0.47619048  0.33333333  0.23809524       0.005
  -0.47619048  0.33333333  0.23809524       0.005
  -0.47619048  0.38095238  0.23809524       0.003
  -0.42857143  0.38095238  0.23809524       0.003
   0.23809524 -0.28571429  0.23809524       0.001
   0.28571429  0.28571429  0.28571429       0.001
   0.33333333  0.28571429  0.28571429       0.003
   0.38095238  0.28571429  0.28571429       0.003
   0.42857143  0.28571429  0.28571429       0.003
   0.47619048  0.28571429  0.28571429       0.003
   0.38095238  0.33333333  0.28571429       0.003
   0.42857143  0.33333333  0.28571429       0.005
   0.47619048  0.33333333  0.28571429       0.005
  -0.47619048  0.33333333  0.28571429       0.003
   0.47619048  0.38095238  0.28571429       0.003
  -0.47619048  0.38095238  0.28571429       0.005
  -0.42857143  0.42857143  0.28571429       0.001
   0.33333333  0.33333333  0.33333333       0.001
   0.38095238  0.33333333  0.33333333       0.003
   0.42857143  0.33333333  0.33333333       0.003
   0.47619048  0.33333333  0.33333333       0.003
   0.42857143  0.38095238  0.33333333       0.003
   0.47619048  0.38095238  0.33333333       0.005
  -0.47619048  0.38095238  0.33333333       0.003
  -0.47619048  0.42857143  0.33333333       0.003
   0.38095238  0.38095238  0.38095238       0.001
   0.42857143  0.38095238  0.38095238       0.003
   0.47619048  0.38095238  0.38095238       0.003
   0.47619048  0.42857143  0.38095238       0.003
  -0.47619048  0.42857143  0.38095238       0.003
   0.42857143  0.42857143  0.42857143       0.001
   0.47619048  0.42857143  0.42857143       0.003
  -0.47619048  0.47619048  0.42857143       0.001
   0.47619048  0.47619048  0.47619048       0.001
 
 position of ions in fractional coordinates (direct lattice) 
   0.00000000  0.00000000  0.00000000
 
 position of ions in cartesian coordinates  (Angst):
   0.00000000  0.00000000  0.00000000
 


--------------------------------------------------------------------------------------------------------


 k-point  1 :   0.0000 0.0000 0.0000  plane waves:     369
 k-point  2 :   0.0476 0.0000 0.0000  plane waves:     349
 k-point  3 :   0.0952 0.0000 0.0000  plane waves:     345
 k-point  4 :   0.1429 0.0000 0.0000  plane waves:     346
 k-point  5 :   0.1905 0.0000 0.0000  plane waves:     346
 k-point  6 :   0.2381 0.0000 0.0000  plane waves:     346
 k-point  7 :   0.2857 0.0000 0.0000  plane waves:     348
 k-point  8 :   0.3333 0.0000 0.0000  plane waves:     350
 k-point  9 :   0.3810 0.0000 0.0000  plane waves:     352
 k-point 10 :   0.4286 0.0000 0.0000  plane waves:     350
 k-point 11 :   0.4762 0.0000 0.0000  plane waves:     340
 k-point 12 :   0.0952 0.0476 0.0000  plane waves:     349
 k-point 13 :   0.1429 0.0476 0.0000  plane waves:     345
 k-point 14 :   0.1905 0.0476 0.0000  plane waves:     347
 k-point 15 :   0.2381 0.0476 0.0000  plane waves:     347
 k-point 16 :   0.2857 0.0476 0.0000  plane waves:     350
 k-point 17 :   0.3333 0.0476 0.0000  plane waves:     350
 k-point 18 :   0.3810 0.0476 0.0000  plane waves:     348
 k-point 19 :   0.4286 0.0476 0.0000  plane waves:     348
 k-point 20 :   0.4762 0.0476-0.0000  plane waves:     344
 k-point 21 :  -0.4762 0.0476-0.0000  plane waves:     341
 k-point 22 :   0.1905 0.0952 0.0000  plane waves:     349
 k-point 23 :   0.2381 0.0952 0.0000  plane waves:     347
 k-point 24 :   0.2857 0.0952 0.0000  plane waves:     348
 k-point 25 :   0.3333 0.0952 0.0000  plane waves:     351
 k-point 26 :   0.3810 0.0952 0.0000  plane waves:     348
 k-point 27 :   0.4286 0.0952 0.0000  plane waves:     346
 k-point 28 :   0.4762 0.0952 0.0000  plane waves:     346
 k-point 29 :  -0.4762 0.0952 0.0000  plane waves:     342
 k-point 30 :   0.2857 0.1429 0.0000  plane waves:     346
 k-point 31 :   0.3333 0.1429-0.0000  plane waves:     351
 k-point 32 :   0.3810 0.1429 0.0000  plane waves:     346
 k-point 33 :   0.4286 0.1429-0.0000  plane waves:     347
 k-point 34 :   0.4762 0.1429-0.0000  plane waves:     345
 k-point 35 :  -0.4762 0.1429-0.0000  plane waves:     344
 k-point 36 :  -0.4286 0.1429-0.0000  plane waves:     344
 k-point 37 :   0.3810 0.1905 0.0000  plane waves:     347
 k-point 38 :   0.4286 0.1905-0.0000  plane waves:     343
 k-point 39 :   0.4762 0.1905 0.0000  plane waves:     343
 k-point 40 :  -0.4762 0.1905 0.0000  plane waves:     343
 k-point 41 :  -0.4286 0.1905 0.0000  plane waves:     346
 k-point 42 :   0.4762 0.2381 0.0000  plane waves:     341
 k-point 43 :  -0.4762 0.2381-0.0000  plane waves:     339
 k-point 44 :  -0.4286 0.2381-0.0000  plane waves:     346
 k-point 45 :  -0.3810 0.2381-0.0000  plane waves:     348
 k-point 46 :  -0.4286 0.2857-0.0000  plane waves:     344
 k-point 47 :  -0.3810 0.2857-0.0000  plane waves:     346
 k-point 48 :  -0.3333 0.3333 0.0000  plane waves:     351
 k-point 49 :   0.0476 0.0476 0.0476  plane waves:     345
 k-point 50 :   0.0952 0.0476 0.0476  plane waves:     349
 k-point 51 :   0.1429 0.0476 0.0476  plane waves:     348
 k-point 52 :   0.1905 0.0476 0.0476  plane waves:     346
 k-point 53 :   0.2381 0.0476 0.0476  plane waves:     349
 k-point 54 :   0.2857 0.0476 0.0476  plane waves:     350
 k-point 55 :   0.3333 0.0476 0.0476  plane waves:     351
 k-point 56 :   0.3810 0.0476 0.0476  plane waves:     350
 k-point 57 :   0.4286 0.0476 0.0476  plane waves:     347
 k-point 58 :   0.4762 0.0476 0.0476  plane waves:     343
 k-point 59 :   0.1429 0.0952 0.0476  plane waves:     345
 k-point 60 :   0.1905 0.0952 0.0476  plane waves:     347
 k-point 61 :   0.2381 0.0952 0.0476  plane waves:     347
 k-point 62 :   0.2857 0.0952 0.0476  plane waves:     350
[...]
     10      18.9549      0.00000
     11      19.4354      0.00000
     12      26.9242      0.00000
     13      27.5475      0.00000
     14      32.4190      0.00000
     15      44.3919      0.00000
     16      50.7310      0.00000

 k-point   278 :       0.3810    0.3810    0.3810
  band No.  band energies     occupation 
      1     -42.2935      1.00000
      2     -42.2621      1.00000
      3     -42.2621      1.00000
      4       6.6469      1.00000
      5       6.9688      1.00000
      6      10.6336      0.00000
      7      10.6336      0.00000
      8      11.2362      0.00000
      9      15.0567      0.00000
     10      21.2680      0.00000
     11      21.2681      0.00000
     12      25.7560      0.00000
     13      27.2581      0.00000
     14      34.3937      0.00000
     15      45.0052      0.00000
     16      49.6445      0.00000

 k-point   279 :       0.4286    0.3810    0.3810
  band No.  band energies     occupation 
      1     -42.3054      1.00000
      2     -42.2746      1.00000
      3     -42.2668      1.00000
      4       6.6251      1.00000
      5       6.7864      1.00000
      6      10.8017      0.00000
      7      10.8679      0.00000
      8      11.4360      0.00000
      9      16.1386      0.00000
     10      20.2218      0.00000
     11      20.6232      0.00000
     12      25.8384      0.00000
     13      27.2063      0.00000
     14      32.9408      0.00000
     15      45.2153      0.00000
     16      50.5168      0.00000

 k-point   280 :       0.4762    0.3810    0.3810
  band No.  band energies     occupation 
      1     -42.3158      1.00000
      2     -42.2811      1.00000
      3     -42.2650      1.00000
      4       6.6253      1.00000
      5       6.6744      1.00000
      6      10.8386      0.00000
      7      10.9869      0.00000
      8      11.6105      0.00000
      9      17.3569      0.00000
     10      18.9245      0.00000
     11      20.2739      0.00000
     12      25.9989      0.00000
     13      27.3251      0.00000
     14      32.0502      0.00000
     15      45.2299      0.00000
     16      50.6930      0.00000

 k-point   281 :       0.4762    0.4286    0.3810
  band No.  band energies     occupation 
      1     -42.3086      1.00000
      2     -42.2896      1.00000
      3     -42.2700      1.00000
      4       6.5813      1.00000
      5       6.6488      1.00000
      6      10.8999      0.00000
      7      11.1881      0.00000
      8      11.5338      0.00000
      9      17.2491      0.00000
     10      19.6582      0.00000
     11      19.7834      0.00000
     12      25.9667      0.00000
     13      26.9352      0.00000
     14      31.8259      0.00000
     15      45.4948      0.00000
     16      51.6748      0.00000

 k-point   282 :      -0.4762    0.4286    0.3810
  band No.  band energies     occupation 
      1     -42.3102      1.00000
      2     -42.2959      1.00000
      3     -42.2694      1.00000
      4       6.5768      1.00000
      5       6.5899      1.00000
      6      10.9156      0.00000
      7      11.3199      0.00000
      8      11.5709      0.00000
      9      18.2703      0.00000
     10      18.7124      0.00000
     11      19.5604      0.00000
     12      26.1706      0.00000
     13      26.7716      0.00000
     14      31.4052      0.00000
     15      45.5491      0.00000
     16      51.9016      0.00000

 k-point   283 :       0.4286    0.4286    0.4286
  band No.  band energies     occupation 
      1     -42.3000      1.00000
      2     -42.2872      1.00000
      3     -42.2872      1.00000
      4       6.5373      1.00000
      5       6.6195      1.00000
      6      11.1789      0.00000
      7      11.1789      0.00000
      8      11.4629      0.00000
      9      17.0996      0.00000
     10      19.9432      0.00000
     11      19.9432      0.00000
     12      25.5979      0.00000
     13      26.6807      0.00000
     14      31.6358      0.00000
     15      45.8535      0.00000
     16      52.6028      0.00000

 k-point   284 :       0.4762    0.4286    0.4286
  band No.  band energies     occupation 
      1     -42.3064      1.00000
      2     -42.2938      1.00000
      3     -42.2886      1.00000
      4       6.4966      1.00000
      5       6.5233      1.00000
      6      11.2901      0.00000
      7      11.3460      0.00000
      8      11.5867      0.00000
      9      18.1372      0.00000
     10      19.1939      0.00000
     11      19.5707      0.00000
     12      25.6999      0.00000
     13      26.3232      0.00000
     14      30.9019      0.00000
     15      46.0752      0.00000
     16      53.3248      0.00000

 k-point   285 :      -0.4762    0.4762    0.4286
  band No.  band energies     occupation 
      1     -42.3029      1.00000
      2     -42.3029      1.00000
      3     -42.2900      1.00000
      4       6.4735      1.00000
      5       6.4735      1.00000
      6      11.3372      0.00000
      7      11.5519      0.00000
      8      11.5519      0.00000
      9      18.9252      0.00000
     10      18.9253      0.00000
     11      19.1150      0.00000
     12      25.8656      0.00000
     13      25.8656      0.00000
     14      30.5831      0.00000
     15      46.2337      0.00000
     16      53.9344      0.00000

 k-point   286 :       0.4762    0.4762    0.4762
  band No.  band energies     occupation 
      1     -42.3020      1.00000
      2     -42.3005      1.00000
      3     -42.3005      1.00000
      4       6.4318      1.00000
      5       6.4391      1.00000
      6      11.5454      0.00000
      7      11.5454      0.00000
      8      11.5824      0.00000
      9      18.7933      0.00000
     10      19.1826      0.00000
     11      19.1827      0.00000
     12      25.5252      0.00000
     13      25.7292      0.00000
     14      30.3109      0.00000
     15      46.4353      0.00000
     16      55.5631      0.00000


--------------------------------------------------------------------------------------------------------


 soft charge-density along one line, spin component           1
         0         1         2         3         4         5         6         7         8         9
 total charge-density along one line
 
 soft charge-density along one line, spin component           2
         0         1         2         3         4         5         6         7         8         9
 total charge-density along one line
 
 pseudopotential strength for first ion, spin component:           1
-45.161  -0.000   0.000   7.693   0.000  -0.000   0.000  -0.000
 -0.000 -45.161   0.000   0.000   7.693  -0.000  -0.000   0.000
  0.000   0.000 -45.161  -0.000  -0.000   7.693   0.000  -0.000
  7.693   0.000  -0.000   5.610   0.000  -0.000  -0.000   0.000
  0.000   7.693  -0.000   0.000   5.610  -0.000   0.000  -0.000
 -0.000  -0.000   7.693  -0.000  -0.000   5.610  -0.000   0.000
  0.000  -0.000   0.000  -0.000   0.000  -0.000  -2.232   0.000
 -0.000   0.000  -0.000   0.000  -0.000   0.000   0.000  -2.232
 -0.000  -0.000  -0.000   0.000   0.000   0.000  -0.000   0.000
 -0.000   0.000  -0.000   0.000  -0.000   0.000  -0.000  -0.000
 -0.000  -0.000   0.000   0.000   0.000  -0.000   0.000  -0.000
  0.000  -0.000   0.000  -0.000   0.000  -0.000  -2.743   0.000
 -0.000   0.000  -0.000   0.000  -0.000   0.000   0.000  -2.743
 -0.000  -0.000  -0.000   0.000   0.000   0.000  -0.000   0.000
 -0.000   0.000  -0.000   0.000  -0.000   0.000  -0.000  -0.000
 -0.000  -0.000   0.000   0.000   0.000  -0.000   0.000  -0.000
 -0.000   0.000  -0.000  -0.000   0.000  -0.000  -0.000   0.000
 -0.000   0.000  -0.000  -0.000   0.000  -0.000  -0.000   0.000
 pseudopotential strength for first ion, spin component:           2
-43.136  -0.000  -0.000   6.838   0.000   0.000   0.000  -0.000
 -0.000 -43.136   0.000   0.000   6.838  -0.000  -0.000   0.000
 -0.000   0.000 -43.136   0.000  -0.000   6.838   0.000  -0.000
  6.838   0.000   0.000   5.846   0.000   0.000  -0.000   0.000
  0.000   6.838  -0.000   0.000   5.846  -0.000   0.000  -0.000
  0.000  -0.000   6.838   0.000  -0.000   5.846  -0.000   0.000
  0.000  -0.000   0.000  -0.000   0.000  -0.000  -0.652   0.000
 -0.000   0.000  -0.000   0.000  -0.000   0.000   0.000  -0.652
 -0.000  -0.000  -0.000   0.000   0.000   0.000  -0.000   0.000
 -0.000   0.000  -0.000   0.000  -0.000   0.000  -0.000  -0.000
 -0.000  -0.000   0.000   0.000   0.000  -0.000   0.000  -0.000
  0.000  -0.000   0.000  -0.000   0.000  -0.000  -1.190   0.000
 -0.000   0.000  -0.000   0.000  -0.000   0.000   0.000  -1.190
 -0.000  -0.000  -0.000   0.000   0.000   0.000  -0.000   0.000
 -0.000   0.000  -0.000   0.000  -0.000   0.000  -0.000  -0.000
 -0.000  -0.000   0.000   0.000   0.000  -0.000   0.000  -0.000
 -0.000   0.000  -0.000  -0.000   0.000  -0.000   0.000   0.000
 -0.000   0.000  -0.000  -0.000   0.000  -0.000   0.000   0.000
 total augmentation occupancy for first ion, spin component:           1
  1.992   0.000   0.000  -0.027  -0.000   0.000   0.000   0.000   0.000   0.000   0.000   0.000   0.000   0.000   0.000   0.000
  0.000   1.992   0.000   0.000  -0.027   0.000   0.000   0.000   0.000   0.000   0.000   0.000   0.000   0.000   0.000   0.000
  0.000   0.000   1.992   0.000  -0.000  -0.027   0.000   0.000   0.000   0.000   0.000   0.000   0.000   0.000   0.000   0.000
 -0.027   0.000   0.000   0.190   0.000   0.000   0.000   0.000   0.000   0.000   0.000   0.000   0.000   0.000   0.000   0.000
 -0.000  -0.027  -0.000   0.000   0.190   0.000   0.000   0.000   0.000   0.000   0.000   0.000   0.000   0.000   0.000   0.000
  0.000   0.000  -0.027   0.000  -0.000   0.190   0.000   0.000   0.000   0.000   0.000   0.000   0.000   0.000   0.000   0.000
  0.000   0.000   0.000   0.000   0.000   0.000   2.217   0.000  -0.000   0.000  -0.000  -1.204  -0.000  -0.000   0.000   0.000
  0.000   0.000   0.000   0.000   0.000   0.000   0.000   2.217  -0.000  -0.000  -0.000  -0.000  -1.204   0.000   0.000  -0.000
  0.000   0.000   0.000   0.000   0.000   0.000  -0.000  -0.000   3.293  -0.000  -0.000   0.000   0.000  -2.048  -0.000  -0.000
  0.000   0.000   0.000   0.000   0.000   0.000   0.000  -0.000  -0.000   2.217  -0.000   0.000   0.000   0.000  -1.204  -0.000
  0.000   0.000   0.000   0.000   0.000   0.000  -0.000  -0.000   0.000  -0.000   3.293  -0.000   0.000   0.000   0.000  -2.048
  0.000   0.000   0.000   0.000   0.000   0.000  -1.204  -0.000   0.000   0.000  -0.000   1.569   0.000  -0.000   0.000  -0.000
  0.000   0.000   0.000   0.000   0.000   0.000  -0.000  -1.204   0.000   0.000   0.000  -0.000   1.569   0.000   0.000  -0.000
  0.000   0.000   0.000   0.000   0.000   0.000  -0.000  -0.000  -2.048   0.000   0.000   0.000  -0.000   2.062   0.000   0.000
  0.000   0.000   0.000   0.000   0.000   0.000   0.000   0.000  -0.000  -1.204   0.000  -0.000   0.000   0.000   1.569   0.000
  0.000   0.000   0.000   0.000   0.000   0.000  -0.000   0.000  -0.000  -0.000  -2.048  -0.000   0.000   0.000  -0.000   2.062
  0.000   0.000   0.000   0.000   0.000   0.000   0.000  -0.000   0.000  -0.000   0.000   0.000   0.000  -0.000   0.000  -0.000
  0.000   0.000   0.000   0.000   0.000   0.000   0.000  -0.000  -0.000  -0.000  -0.000   0.000   0.000   0.000   0.000  -0.000
 total augmentation occupancy for first ion, spin component:           2
 -0.002   0.000   0.000  -0.009   0.000   0.000   0.000   0.000   0.000   0.000   0.000   0.000   0.000   0.000   0.000   0.000
  0.000  -0.002   0.000   0.000  -0.009   0.000   0.000   0.000   0.000   0.000   0.000   0.000   0.000   0.000   0.000   0.000
  0.000   0.000  -0.002   0.000   0.000  -0.009   0.000   0.000   0.000   0.000   0.000   0.000   0.000   0.000   0.000   0.000
 -0.009   0.000   0.000  -0.019   0.000   0.000   0.000   0.000   0.000   0.000   0.000   0.000   0.000   0.000   0.000   0.000
  0.000  -0.009   0.000   0.000  -0.019   0.000   0.000   0.000   0.000   0.000   0.000   0.000   0.000   0.000   0.000   0.000
  0.000   0.000  -0.009   0.000   0.000  -0.019   0.000   0.000   0.000   0.000   0.000   0.000   0.000   0.000   0.000   0.000
  0.000   0.000   0.000   0.000   0.000   0.000   1.849   0.000   0.000  -0.000  -0.000  -0.708  -0.000   0.000   0.000   0.000
  0.000   0.000   0.000   0.000   0.000   0.000   0.000   1.849  -0.000   0.000   0.000  -0.000  -0.708  -0.000   0.000  -0.000
  0.000   0.000   0.000   0.000   0.000   0.000   0.000   0.000   2.772   0.000   0.000   0.000  -0.000  -1.126  -0.000   0.000
  0.000   0.000   0.000   0.000   0.000   0.000  -0.000   0.000   0.000   1.849   0.000  -0.000   0.000   0.000  -0.708   0.000
  0.000   0.000   0.000   0.000   0.000   0.000  -0.000  -0.000   0.000  -0.000   2.772   0.000  -0.000   0.000   0.000  -1.126
  0.000   0.000   0.000   0.000   0.000   0.000  -0.708  -0.000  -0.000  -0.000  -0.000   0.021   0.000   0.000  -0.000   0.000
  0.000   0.000   0.000   0.000   0.000   0.000  -0.000  -0.708   0.000   0.000   0.000  -0.000   0.021   0.000   0.000   0.000
  0.000   0.000   0.000   0.000   0.000   0.000   0.000   0.000  -1.126   0.000   0.000   0.000   0.000   0.216  -0.000   0.000
  0.000   0.000   0.000   0.000   0.000   0.000   0.000   0.000  -0.000  -0.708   0.000   0.000   0.000  -0.000   0.021   0.000
  0.000   0.000   0.000   0.000   0.000   0.000  -0.000  -0.000   0.000   0.000  -1.126  -0.000   0.000   0.000   0.000   0.216
  0.000   0.000   0.000   0.000   0.000   0.000   0.000   0.000  -0.000   0.000   0.000   0.000   0.000  -0.000   0.000   0.000
  0.000   0.000   0.000   0.000   0.000   0.000  -0.000  -0.000   0.000  -0.000   0.000   0.000  -0.000  -0.000   0.000  -0.000


------------------------ aborting loop because EDIFF is reached ----------------------------------------


 


 total charge     
 
# of ion       s       p       d       tot
------------------------------------------
    1        0.374   6.356   6.061  12.791
 


 magnetization (x)
 
# of ion       s       p       d       tot
------------------------------------------
    1       -0.008  -0.040   2.359   2.311
 
    CHARGE:  cpu time    0.0200: real time    0.0201
    FORLOC:  cpu time    0.0001: real time    0.0001
    FORNL :  cpu time    0.1000: real time    0.1003
    STRESS:  cpu time    0.3049: real time    0.3056
    FORCOR:  cpu time    0.0038: real time    0.0038
    FORHAR:  cpu time    0.0004: real time    0.0004
    MIXING:  cpu time    0.0003: real time    0.0003
    OFIELD:  cpu time    0.0000: real time    0.0000

  FORCE on cell =-STRESS in cart. coord.  units (eV):
  Direction    XX          YY          ZZ          XY          YZ          ZX
  --------------------------------------------------------------------------------------
  Alpha Z   106.04505   106.04505   106.04505
  Ewald    -596.47040  -596.47040  -596.47040    -0.00000     0.00000     0.00000
  Hartree   185.16504   185.16504   185.16504     0.00000     0.00000     0.00000
  E(xc)     -89.84508   -89.84508   -89.84508    -0.00002    -0.00002     0.00002
  Local     138.80083   138.80083   138.80083     0.00037     0.00037    -0.00036
  n-local   -27.55077   -26.33221   -29.95776     0.99276    -2.35873    -2.62689
  augment   142.72944   142.72944   142.72944    -0.00028    -0.00029     0.00026
  Kinetic   140.95053   140.78902   141.36871    -1.13809     0.70559     1.79991
  Fock        0.00000     0.00000     0.00000     0.00000     0.00000     0.00000
  -------------------------------------------------------------------------------------
  Total      -0.48595    -0.48595    -0.48595     0.00000     0.00000     0.00000
  in kB     -65.86983   -65.86983   -65.86983     0.00000     0.00000     0.00000
  external pressure =      -65.87 kB  Pullay stress =        0.00 kB


 VOLUME and BASIS-vectors are now :
 -----------------------------------------------------------------------------
  energy-cutoff  :      550.00
  volume of cell :       11.82
      direct lattice vectors                 reciprocal lattice vectors
     1.435000000  1.435000000  1.435000000     0.348432056  0.000000000  0.348432056
    -1.435000000  1.435000000  1.435000000    -0.348432056  0.348432056  0.000000000
    -1.435000000 -1.435000000  1.435000000     0.000000000 -0.348432056  0.348432056

  length of vectors
     2.485492909  2.485492909  2.485492909     0.492757339  0.492757339  0.492757339


 FORCES acting on ions
    electron-ion (+dipol)            ewald-force                    non-local-force                 convergence-correction
 -----------------------------------------------------------------------------------------------
   -.872E-14 0.194E-14 -.111E-12   0.181E-14 -.118E-14 -.124E-15   0.000E+00 0.207E-24 0.000E+00   0.542E-13 0.191E-13 -.395E-13
 -----------------------------------------------------------------------------------------------
   -.872E-14 0.194E-14 -.111E-12   0.181E-14 -.118E-14 -.124E-15   0.000E+00 0.207E-24 0.000E+00   0.542E-13 0.191E-13 -.395E-13
 
 
 POSITION                                       TOTAL-FORCE (eV/Angst)
 -----------------------------------------------------------------------------------
      0.00000      0.00000      0.00000         0.000000     -0.000000     -0.000000
 -----------------------------------------------------------------------------------
    total drift:                                0.000000      0.000000     -0.000000
 
 
 POSITION                                       TOTAL-FORCE + BIAS-FORCE (eV/Angst)
 -----------------------------------------------------------------------------------
      0.00000      0.00000      0.00000         0.000000     -0.000000     -0.000000
 -----------------------------------------------------------------------------------
    total drift:                                0.000000      0.000000     -0.000000


--------------------------------------------------------------------------------------------------------



  FREE ENERGIE OF THE ION-ELECTRON SYSTEM (eV)
  ---------------------------------------------------
  free  energy   TOTEN  =        -8.24734529 eV

  energy  without entropy=       -8.24734529  energy(sigma->0) =       -8.24734529
 


--------------------------------------------------------------------------------------------------------


    POTLOK:  cpu time    0.0105: real time    0.0115


--------------------------------------------------------------------------------------------------------


     LOOP+:  cpu time   24.6830: real time   25.1802
    4ORBIT:  cpu time    0.0000: real time    0.0000
 


 total charge     
 
# of ion       s       p       d       tot
------------------------------------------
    1        0.374   6.356   6.061  12.791
 


 magnetization (x)
 
# of ion       s       p       d       tot
------------------------------------------
    1       -0.008  -0.040   2.359   2.311
 
 BZINTS: Fermi energy:  9.176835; 14.000000 electrons
         Band energy:-204.627958;  BLOECHL correction: -0.011234

 total amount of memory used by VASP MPI-rank0    61189. kBytes
=======================================================================

   base      :      30000. kBytes
   nonl-proj :      15326. kBytes
   fftplans  :        840. kBytes
   grid      :        642. kBytes
   one-center:         31. kBytes
   wavefun   :      14350. kBytes
 
  
  
 General timing and accounting informations for this job:
 ========================================================
  
                  Total CPU time used (sec):       36.634
                            User time (sec):       31.225
                          System time (sec):        5.409
                         Elapsed time (sec):       38.204
  
                   Maximum memory used (kb):      142612.
                   Average memory used (kb):           0.
  
                          Minor page faults:      1136129
                          Major page faults:            0
                 Voluntary context switches:          675
