 vasp.5.4.1 05Feb16 (build Aug 30 2019 09:58:18) complex                        
  
 executed on           IFC91_ompi date 2021.10.03  23:30:54
 running on    4 total cores
 distrk:  each k-point on    4 cores,    1 groups
 distr:  one band on NCORES_PER_BAND=   1 cores,    4 groups


--------------------------------------------------------------------------------------------------------


 INCAR:
 POTCAR:    PAW_PBE Mn_pv 02Aug2007               
 POTCAR:    PAW_PBE V_pv 07Sep2000                
 POTCAR:    PAW_PBE As 22Sep2009                  
 POTCAR:    PAW_PBE Mn_pv 02Aug2007               
   VRHFIN =Mn: 3p4s3d                                                           
   LEXCH  = PE                                                                  
   EATOM  =  2025.2664 eV,  148.8529 Ry                                         
                                                                                
   TITEL  = PAW_PBE Mn_pv 02Aug2007                                             
   LULTRA =        F    use ultrasoft PP ?                                      
   IUNSCR =        1    unscreen: 0-lin 1-nonlin 2-no                           
   RPACOR =    2.080    partial core radius                                     
   POMASS =   54.938; ZVAL   =   13.000    mass and valenz                      
   RCORE  =    2.300    outmost cutoff radius                                   
   RWIGS  =    2.500; RWIGS  =    1.323    wigner-seitz radius (au A)           
   ENMAX  =  269.864; ENMIN  =  202.398 eV                                      
   ICORE  =        3    local potential                                         
   LCOR   =        T    correct aug charges                                     
   LPAW   =        T    paw PP                                                  
   EAUG   =  569.085                                                            
   DEXC   =    0.000                                                            
   RMAX   =    2.343    core radius for proj-oper                               
   RAUG   =    1.300    factor for augmentation sphere                          
   RDEP   =    2.338    radius for radial grids                                 
   RDEPT  =    1.798    core radius for aug-charge                              
                                                                                
   Atomic configuration                                                         
    8 entries                                                                   
     n  l   j            E        occ.                                          
     1  0  0.50     -6424.8287   2.0000                                         
     2  0  0.50      -739.1154   2.0000                                         
     2  1  1.50      -625.3949   6.0000                                         
     3  0  0.50       -81.6100   2.0000                                         
     3  1  1.50       -50.4667   6.0000                                         
     3  2  2.50        -3.3745   6.0000                                         
     4  0  0.50        -4.1331   1.0000                                         
     4  3  2.50        -1.3606   0.0000                                         
   Description                                                                  
     l       E           TYP  RCUT    TYP  RCUT                                 
     1    -50.4666628     23  2.000                                             
     1     -1.3605826     23  2.000                                             
     2     -3.3744729     23  2.300                                             
     2     -4.7350555     23  2.300                                             
     0     -4.1331431     23  2.300                                             
     0      7.6656591     23  2.300                                             
     3      9.5240782     23  2.300                                             
  local pseudopotential read in
  partial core-charges read in
  partial kinetic energy density read in
  atomic valenz-charges read in
  non local Contribution for L=           1  read in
    real space projection operators read in
  non local Contribution for L=           1  read in
    real space projection operators read in
  non local Contribution for L=           2  read in
    real space projection operators read in
  non local Contribution for L=           2  read in
    real space projection operators read in
  non local Contribution for L=           0  read in
    real space projection operators read in
  non local Contribution for L=           0  read in
    real space projection operators read in
    PAW grid and wavefunctions read in
 
   number of l-projection  operators is LMAX  =           6
   number of lm-projection operators is LMMAX =          18
 
 POTCAR:    PAW_PBE V_pv 07Sep2000                
   VRHFIN =V: p6 d4 s1                                                          
   LEXCH  = PE                                                                  
   EATOM  =  1321.6206 eV,   97.1364 Ry                                         
                                                                                
   TITEL  = PAW_PBE V_pv 07Sep2000                                              
   LULTRA =        F    use ultrasoft PP ?                                      
   IUNSCR =        1    unscreen: 0-lin 1-nonlin 2-no                           
   RPACOR =    1.700    partial core radius                                     
   POMASS =   50.941; ZVAL   =   11.000    mass and valenz                      
   RCORE  =    2.300    outmost cutoff radius                                   
   RWIGS  =    2.300; RWIGS  =    1.217    wigner-seitz radius (au A)           
   ENMAX  =  263.673; ENMIN  =  197.755 eV                                      
   RCLOC  =    1.779    cutoff for local pot                                    
   LCOR   =        T    correct aug charges                                     
   LPAW   =        T    paw PP                                                  
   EAUG   =  598.473                                                            
   DEXC   =    0.000                                                            
   RMAX   =    2.359    core radius for proj-oper                               
   RAUG   =    1.300    factor for augmentation sphere                          
   RDEP   =    2.430    radius for radial grids                                 
   RDEPT  =    1.700    core radius for aug-charge                              
                                                                                
   Atomic configuration                                                         
    8 entries                                                                   
     n  l   j            E        occ.                                          
     1  0  0.50     -5360.7193   2.0000                                         
     2  0  0.50      -598.4546   2.0000                                         
     2  1  1.50      -499.0155   6.0000                                         
     3  0  0.50       -66.5711   2.0000                                         
     3  1  1.50       -40.5282   6.0000                                         
     3  2  2.50        -2.4291   4.0000                                         
     4  0  0.50        -3.8743   1.0000                                         
     4  3  2.50        -1.3606   0.0000                                         
   Description                                                                  
     l       E           TYP  RCUT    TYP  RCUT                                 
     1    -40.5282431     23  2.000                                             
     1      5.4423304     23  2.000                                             
     2     -2.4290905     23  2.300                                             
     2     -1.0472488     23  2.300                                             
     0     -3.8742754     23  2.300                                             
     0     27.2116520     23  2.300                                             
  local pseudopotential read in
  partial core-charges read in
  partial kinetic energy density read in
  atomic valenz-charges read in
  non local Contribution for L=           1  read in
    real space projection operators read in
  non local Contribution for L=           1  read in
    real space projection operators read in
  non local Contribution for L=           2  read in
    real space projection operators read in
  non local Contribution for L=           2  read in
    real space projection operators read in
  non local Contribution for L=           0  read in
    real space projection operators read in
  non local Contribution for L=           0  read in
    real space projection operators read in
    PAW grid and wavefunctions read in
 
   number of l-projection  operators is LMAX  =           6
   number of lm-projection operators is LMMAX =          18
 
 POTCAR:    PAW_PBE As 22Sep2009                  
   VRHFIN =As: s2p3                                                             
   LEXCH  = PE                                                                  
   EATOM  =   170.1867 eV,   12.5084 Ry                                         
                                                                                
   TITEL  = PAW_PBE As 22Sep2009                                                
   LULTRA =        F    use ultrasoft PP ?                                      
   IUNSCR =        1    unscreen: 0-lin 1-nonlin 2-no                           
   RPACOR =    1.900    partial core radius                                     
   POMASS =   74.922; ZVAL   =    5.000    mass and valenz                      
   RCORE  =    2.100    outmost cutoff radius                                   
   RWIGS  =    2.300; RWIGS  =    1.217    wigner-seitz radius (au A)           
   ENMAX  =  208.702; ENMIN  =  156.526 eV                                      
   ICORE  =        3    local potential                                         
   LCOR   =        T    correct aug charges                                     
   LPAW   =        T    paw PP                                                  
   EAUG   =  462.758                                                            
   DEXC   =    0.000                                                            
   RMAX   =    2.144    core radius for proj-oper                               
   RAUG   =    1.300    factor for augmentation sphere                          
   RDEP   =    2.140    radius for radial grids                                 
   RDEPT  =    1.956    core radius for aug-charge                              
                                                                                
   Atomic configuration                                                         
   10 entries                                                                   
     n  l   j            E        occ.                                          
     1  0  0.50    -11718.0418   2.0000                                         
     2  0  0.50     -1486.5454   2.0000                                         
     2  1  1.50     -1303.3889   6.0000                                         
     3  0  0.50      -190.2849   2.0000                                         
     3  1  1.50      -133.6555   6.0000                                         
     3  2  2.50       -40.6443  10.0000                                         
     4  0  0.50       -14.4936   2.0000                                         
     4  1  0.50        -5.1947   3.0000                                         
     4  2  1.50        -5.4423   0.0000                                         
     4  3  2.50        -5.4423   0.0000                                         
   Description                                                                  
     l       E           TYP  RCUT    TYP  RCUT                                 
     0    -14.4935570     23  2.100                                             
     0    -11.9212055     23  2.100                                             
     1     -5.1947127     23  2.100                                             
     1     27.2116520     23  2.100                                             
     2     -5.4423304     23  2.100                                             
     3     -1.3605826      7  2.100                                             
  local pseudopotential read in
  partial core-charges read in
  partial kinetic energy density read in
  atomic valenz-charges read in
  non local Contribution for L=           0  read in
    real space projection operators read in
  non local Contribution for L=           0  read in
    real space projection operators read in
  non local Contribution for L=           1  read in
    real space projection operators read in
  non local Contribution for L=           1  read in
    real space projection operators read in
  non local Contribution for L=           2  read in
    real space projection operators read in
    PAW grid and wavefunctions read in
 
   number of l-projection  operators is LMAX  =           5
   number of lm-projection operators is LMMAX =          13
 
  PAW_PBE Mn_pv 02Aug2007               :
 energy of atom  1       EATOM=-2025.2664
 kinetic energy error for atom=    0.0062 (will be added to EATOM!!)
  PAW_PBE V_pv 07Sep2000                :
 energy of atom  2       EATOM=-1321.6206
 kinetic energy error for atom=    0.0058 (will be added to EATOM!!)
  PAW_PBE As 22Sep2009                  :
 energy of atom  3       EATOM= -170.1867
 kinetic energy error for atom=    0.0005 (will be added to EATOM!!)
 
 
 POSCAR: Mn V As                                 
  positions in direct lattice
  velocities in cartesian coordinates
 exchange correlation table for  LEXCH =        8
   RHO(1)=    0.500       N(1)  =     2000
   RHO(2)=  100.500       N(2)  =     4000
 


--------------------------------------------------------------------------------------------------------


 ion  position               nearest neighbor table
   1  0.750  0.750  0.750-   4 2.48   4 2.48   4 2.48   3 2.48   4 2.48   3 2.48   3 2.48   3 2.48
                             2 2.86   2 2.86   2 2.86   2 2.86   2 2.86   2 2.86
   2  0.250  0.250  0.250-   3 2.48   3 2.48   3 2.48   3 2.48   4 2.48   4 2.48   4 2.48   4 2.48
                             1 2.86   1 2.86   1 2.86   1 2.86   1 2.86   1 2.86
   3  0.000  0.000  0.000-   1 2.48   1 2.48   1 2.48   1 2.48   2 2.48   2 2.48   2 2.48   2 2.48
                             4 2.86   4 2.86   4 2.86   4 2.86   4 2.86   4 2.86
   4  0.500  0.500  0.500-   2 2.48   2 2.48   2 2.48   1 2.48   2 2.48   1 2.48   1 2.48   1 2.48
                             3 2.86   3 2.86   3 2.86   3 2.86   3 2.86   3 2.86
 
  LATTYP: Found a face centered cubic cell.
 ALAT       =     5.7277846790
  
  Lattice vectors:
  
 A1 = (   0.0000000000,   2.8638923395,   2.8638923395)
 A2 = (   2.8638923395,   0.0000000000,   2.8638923395)
 A3 = (   2.8638923395,   2.8638923395,   0.0000000000)


Analysis of symmetry for initial positions (statically):
=====================================================================
 Subroutine PRICEL returns:
 Original cell was already a primitive cell.
 

 Routine SETGRP: Setting up the symmetry group for a 
 face centered cubic supercell.


 Subroutine GETGRP returns: Found 48 space group operations
 (whereof 48 operations were pure point group operations)
 out of a pool of 48 trial point group operations.


The static configuration has the point symmetry O_h .


Analysis of symmetry for dynamics (positions and initial velocities):
=====================================================================
 Subroutine PRICEL returns:
 Original cell was already a primitive cell.
 

 Routine SETGRP: Setting up the symmetry group for a 
 face centered cubic supercell.


 Subroutine GETGRP returns: Found 48 space group operations
 (whereof 48 operations were pure point group operations)
 out of a pool of 48 trial point group operations.


The dynamic configuration has the point symmetry O_h .


Analysis of structural, dynamic, and magnetic symmetry:
=====================================================================
 Subroutine PRICEL returns:
 Original cell was already a primitive cell.
 

 Routine SETGRP: Setting up the symmetry group for a 
 face centered cubic supercell.


 Subroutine GETGRP returns: Found 24 space group operations
 (whereof 24 operations were pure point group operations)
 out of a pool of 48 trial point group operations.


The magnetic configuration has the point symmetry T_d .


 Subroutine INISYM returns: Found 24 space group operations
 (whereof 24 operations are pure point group operations),
 and found     1 'primitive' translations

 
 
 KPOINTS: Automatic Mesh # Generates Automatically

Automatic generation of k-mesh.
Space group operators:
 irot       det(A)        alpha          n_x          n_y          n_z        tau_x        tau_y        tau_z
    1     1.000000     0.000000     1.000000     0.000000     0.000000     0.000000     0.000000     0.000000
    2     1.000000   120.000000    -0.577350    -0.577350    -0.577350     0.000000     0.000000     0.000000
    3     1.000000   120.000000     0.577350     0.577350     0.577350     0.000000     0.000000     0.000000
    4    -1.000000    90.000000     0.000000     0.000000    -1.000000     0.000000     0.000000     0.000000
    5    -1.000000   180.000000     0.000000     0.707107     0.707107     0.000000     0.000000     0.000000
    6    -1.000000    90.000000     0.000000     1.000000     0.000000     0.000000     0.000000     0.000000
    7     1.000000   180.000000     0.000000     0.000000     1.000000     0.000000     0.000000     0.000000
    8     1.000000   120.000000    -0.577350     0.577350     0.577350     0.000000     0.000000     0.000000
    9     1.000000   120.000000    -0.577350     0.577350    -0.577350     0.000000     0.000000     0.000000
   10    -1.000000    90.000000     0.000000     0.000000     1.000000     0.000000     0.000000     0.000000
   11    -1.000000    90.000000    -1.000000     0.000000     0.000000     0.000000     0.000000     0.000000
   12    -1.000000   180.000000     0.707107     0.000000     0.707107     0.000000     0.000000     0.000000
   13     1.000000   120.000000     0.577350    -0.577350     0.577350     0.000000     0.000000     0.000000
   14     1.000000   120.000000    -0.577350    -0.577350     0.577350     0.000000     0.000000     0.000000
   15     1.000000   180.000000     1.000000     0.000000     0.000000     0.000000     0.000000     0.000000
   16    -1.000000    90.000000     0.000000    -1.000000     0.000000     0.000000     0.000000     0.000000
   17    -1.000000   180.000000     0.707107     0.707107     0.000000     0.000000     0.000000     0.000000
   18    -1.000000    90.000000     1.000000     0.000000     0.000000     0.000000     0.000000     0.000000
   19     1.000000   120.000000     0.577350    -0.577350    -0.577350     0.000000     0.000000     0.000000
   20     1.000000   180.000000     0.000000     1.000000     0.000000     0.000000     0.000000     0.000000
   21     1.000000   120.000000     0.577350     0.577350    -0.577350     0.000000     0.000000     0.000000
   22    -1.000000   180.000000     0.000000    -0.707107     0.707107     0.000000     0.000000     0.000000
   23    -1.000000   180.000000     0.707107    -0.707107     0.000000     0.000000     0.000000     0.000000
   24    -1.000000   180.000000     0.707107     0.000000    -0.707107     0.000000     0.000000     0.000000
 
 Subroutine IBZKPT returns following result:
 ===========================================
 
 Found    120 irreducible k-points:
 
 Following reciprocal coordinates:
            Coordinates               Weight
  0.000000  0.000000  0.000000      1.000000
  0.066667  0.000000  0.000000      8.000000
  0.133333  0.000000  0.000000      8.000000
  0.200000  0.000000  0.000000      8.000000
  0.266667  0.000000  0.000000      8.000000
  0.333333  0.000000  0.000000      8.000000
  0.400000  0.000000  0.000000      8.000000
  0.466667  0.000000  0.000000      8.000000
  0.066667  0.066667  0.000000      6.000000
  0.133333  0.066667  0.000000     24.000000
  0.200000  0.066667  0.000000     24.000000
  0.266667  0.066667  0.000000     24.000000
  0.333333  0.066667  0.000000     24.000000
  0.400000  0.066667  0.000000     24.000000
  0.466667  0.066667  0.000000     24.000000
 -0.466667  0.066667  0.000000     24.000000
 -0.400000  0.066667  0.000000     24.000000
 -0.333333  0.066667  0.000000     24.000000
 -0.266667  0.066667  0.000000     24.000000
 -0.200000  0.066667  0.000000     24.000000
 -0.133333  0.066667  0.000000     24.000000
 -0.066667  0.066667  0.000000     12.000000
  0.133333  0.133333  0.000000      6.000000
  0.200000  0.133333  0.000000     24.000000
  0.266667  0.133333  0.000000     24.000000
  0.333333  0.133333  0.000000     24.000000
  0.400000  0.133333  0.000000     24.000000
  0.466667  0.133333  0.000000     24.000000
 -0.466667  0.133333  0.000000     24.000000
 -0.400000  0.133333  0.000000     24.000000
 -0.333333  0.133333  0.000000     24.000000
 -0.266667  0.133333  0.000000     24.000000
 -0.200000  0.133333  0.000000     24.000000
 -0.133333  0.133333  0.000000     12.000000
  0.200000  0.200000  0.000000      6.000000
  0.266667  0.200000  0.000000     24.000000
  0.333333  0.200000  0.000000     24.000000
  0.400000  0.200000  0.000000     24.000000
  0.466667  0.200000  0.000000     24.000000
 -0.466667  0.200000  0.000000     24.000000
 -0.400000  0.200000  0.000000     24.000000
 -0.333333  0.200000  0.000000     24.000000
 -0.266667  0.200000  0.000000     24.000000
 -0.200000  0.200000  0.000000     12.000000
  0.266667  0.266667  0.000000      6.000000
  0.333333  0.266667  0.000000     24.000000
  0.400000  0.266667  0.000000     24.000000
  0.466667  0.266667  0.000000     24.000000
 -0.466667  0.266667  0.000000     24.000000
 -0.400000  0.266667  0.000000     24.000000
 -0.333333  0.266667  0.000000     24.000000
 -0.266667  0.266667  0.000000     12.000000
  0.333333  0.333333  0.000000      6.000000
  0.400000  0.333333  0.000000     24.000000
  0.466667  0.333333  0.000000     24.000000
 -0.466667  0.333333  0.000000     24.000000
 -0.400000  0.333333  0.000000     24.000000
 -0.333333  0.333333  0.000000     12.000000
  0.400000  0.400000  0.000000      6.000000
  0.466667  0.400000  0.000000     24.000000
 -0.466667  0.400000  0.000000     24.000000
 -0.400000  0.400000  0.000000     12.000000
  0.466667  0.466667  0.000000      6.000000
 -0.466667  0.466667  0.000000     12.000000
  0.200000  0.133333  0.066667     24.000000
  0.266667  0.133333  0.066667     48.000000
  0.333333  0.133333  0.066667     48.000000
  0.400000  0.133333  0.066667     48.000000
  0.466667  0.133333  0.066667     48.000000
 -0.466667  0.133333  0.066667     48.000000
  0.266667  0.200000  0.066667     24.000000
  0.333333  0.200000  0.066667     48.000000
  0.400000  0.200000  0.066667     48.000000
  0.466667  0.200000  0.066667     48.000000
 -0.466667  0.200000  0.066667     48.000000
 -0.400000  0.200000  0.066667     48.000000
 -0.333333  0.200000  0.066667     48.000000
 -0.266667  0.200000  0.066667     48.000000
 -0.200000  0.200000  0.066667     48.000000
 -0.133333  0.200000  0.066667     24.000000
  0.333333  0.266667  0.066667     24.000000
  0.400000  0.266667  0.066667     48.000000
  0.466667  0.266667  0.066667     48.000000
 -0.466667  0.266667  0.066667     48.000000
 -0.400000  0.266667  0.066667     48.000000
 -0.333333  0.266667  0.066667     48.000000
 -0.266667  0.266667  0.066667     48.000000
 -0.200000  0.266667  0.066667     24.000000
  0.400000  0.333333  0.066667     24.000000
  0.466667  0.333333  0.066667     48.000000
 -0.466667  0.333333  0.066667     48.000000
 -0.400000  0.333333  0.066667     48.000000
 -0.333333  0.333333  0.066667     48.000000
 -0.266667  0.333333  0.066667     24.000000
  0.466667  0.400000  0.066667     24.000000
 -0.466667  0.400000  0.066667     48.000000
 -0.400000  0.400000  0.066667     48.000000
 -0.333333  0.400000  0.066667     24.000000
 -0.466667  0.466667  0.066667     24.000000
 -0.400000  0.466667  0.066667     24.000000
  0.400000  0.266667  0.133333     24.000000
  0.466667  0.266667  0.133333     48.000000
 -0.466667  0.266667  0.133333     48.000000
 -0.400000  0.266667  0.133333     48.000000
  0.466667  0.333333  0.133333     24.000000
 -0.466667  0.333333  0.133333     48.000000
 -0.400000  0.333333  0.133333     48.000000
 -0.333333  0.333333  0.133333     48.000000
 -0.266667  0.333333  0.133333     48.000000
 -0.200000  0.333333  0.133333     24.000000
 -0.466667  0.400000  0.133333     24.000000
 -0.400000  0.400000  0.133333     48.000000
 -0.333333  0.400000  0.133333     48.000000
 -0.266667  0.400000  0.133333     24.000000
 -0.400000  0.466667  0.133333     24.000000
 -0.333333  0.466667  0.133333     24.000000
 -0.400000  0.400000  0.200000     24.000000
 -0.333333  0.400000  0.200000     48.000000
 -0.333333  0.466667  0.200000     24.000000
 -0.266667  0.466667  0.200000     24.000000
 
 Following cartesian coordinates:
            Coordinates               Weight
  0.000000  0.000000  0.000000      1.000000
 -0.064015  0.064015  0.064015      8.000000
 -0.128031  0.128031  0.128031      8.000000
 -0.192046  0.192046  0.192046      8.000000
 -0.256062  0.256062  0.256062      8.000000
 -0.320077  0.320077  0.320077      8.000000
 -0.384093  0.384093  0.384093      8.000000
 -0.448108  0.448108  0.448108      8.000000
  0.000000  0.000000  0.128031      6.000000
 -0.064015  0.064015  0.192046     24.000000
 -0.128031  0.128031  0.256062     24.000000
 -0.192046  0.192046  0.320077     24.000000
 -0.256062  0.256062  0.384093     24.000000
 -0.320077  0.320077  0.448108     24.000000
 -0.384093  0.384093  0.512124     24.000000
  0.512124 -0.512124 -0.384093     24.000000
  0.448108 -0.448108 -0.320077     24.000000
  0.384093 -0.384093 -0.256062     24.000000
  0.320077 -0.320077 -0.192046     24.000000
  0.256062 -0.256062 -0.128031     24.000000
  0.192046 -0.192046 -0.064015     24.000000
  0.128031 -0.128031  0.000000     12.000000
  0.000000  0.000000  0.256062      6.000000
 -0.064015  0.064015  0.320077     24.000000
 -0.128031  0.128031  0.384093     24.000000
 -0.192046  0.192046  0.448108     24.000000
 -0.256062  0.256062  0.512124     24.000000
 -0.320077  0.320077  0.576139     24.000000
  0.576139 -0.576139 -0.320077     24.000000
  0.512124 -0.512124 -0.256062     24.000000
  0.448108 -0.448108 -0.192046     24.000000
  0.384093 -0.384093 -0.128031     24.000000
  0.320077 -0.320077 -0.064015     24.000000
  0.256062 -0.256062  0.000000     12.000000
  0.000000  0.000000  0.384093      6.000000
 -0.064015  0.064015  0.448108     24.000000
 -0.128031  0.128031  0.512124     24.000000
 -0.192046  0.192046  0.576139     24.000000
 -0.256062  0.256062  0.640154     24.000000
  0.640154 -0.640154 -0.256062     24.000000
  0.576139 -0.576139 -0.192046     24.000000
  0.512124 -0.512124 -0.128031     24.000000
  0.448108 -0.448108 -0.064015     24.000000
  0.384093 -0.384093  0.000000     12.000000
  0.000000  0.000000  0.512124      6.000000
 -0.064015  0.064015  0.576139     24.000000
 -0.128031  0.128031  0.640154     24.000000
 -0.192046  0.192046  0.704170     24.000000
  0.704170 -0.704170 -0.192046     24.000000
  0.640154 -0.640154 -0.128031     24.000000
  0.576139 -0.576139 -0.064015     24.000000
  0.512124 -0.512124  0.000000     12.000000
  0.000000  0.000000  0.640154      6.000000
 -0.064015  0.064015  0.704170     24.000000
 -0.128031  0.128031  0.768185     24.000000
  0.768185 -0.768185 -0.128031     24.000000
  0.704170 -0.704170 -0.064015     24.000000
  0.640154 -0.640154  0.000000     12.000000
  0.000000  0.000000  0.768185      6.000000
 -0.064015  0.064015  0.832201     24.000000
  0.832201 -0.832201 -0.064015     24.000000
  0.768185 -0.768185  0.000000     12.000000
  0.000000  0.000000  0.896216      6.000000
  0.896216 -0.896216  0.000000     12.000000
 -0.000000  0.128031  0.256062     24.000000
 -0.064015  0.192046  0.320077     48.000000
 -0.128031  0.256062  0.384093     48.000000
 -0.192046  0.320077  0.448108     48.000000
 -0.256062  0.384093  0.512124     48.000000
  0.640154 -0.512124 -0.384093     48.000000
 -0.000000  0.128031  0.384093     24.000000
 -0.064015  0.192046  0.448108     48.000000
 -0.128031  0.256062  0.512124     48.000000
 -0.192046  0.320077  0.576139     48.000000
  0.704170 -0.576139 -0.320077     48.000000
  0.640154 -0.512124 -0.256062     48.000000
  0.576139 -0.448108 -0.192046     48.000000
  0.512124 -0.384093 -0.128031     48.000000
  0.448108 -0.320077 -0.064015     48.000000
  0.384093 -0.256062  0.000000     24.000000
 -0.000000  0.128031  0.512124     24.000000
 -0.064015  0.192046  0.576139     48.000000
 -0.128031  0.256062  0.640154     48.000000
  0.768185 -0.640154 -0.256062     48.000000
  0.704170 -0.576139 -0.192046     48.000000
  0.640154 -0.512124 -0.128031     48.000000
  0.576139 -0.448108 -0.064015     48.000000
  0.512124 -0.384093  0.000000     24.000000
 -0.000000  0.128031  0.640154     24.000000
 -0.064015  0.192046  0.704170     48.000000
  0.832201 -0.704170 -0.192046     48.000000
  0.768185 -0.640154 -0.128031     48.000000
  0.704170 -0.576139 -0.064015     48.000000
  0.640154 -0.512124 -0.000000     24.000000
 -0.000000  0.128031  0.768185     24.000000
  0.896216 -0.768185 -0.128031     48.000000
  0.832201 -0.704170 -0.064015     48.000000
  0.768185 -0.640154  0.000000     24.000000
  0.960232 -0.832201 -0.064015     24.000000
  0.896216 -0.768185  0.000000     24.000000
  0.000000  0.256062  0.512124     24.000000
 -0.064015  0.320077  0.576139     48.000000
  0.832201 -0.576139 -0.320077     48.000000
  0.768185 -0.512124 -0.256062     48.000000
 -0.000000  0.256062  0.640154     24.000000
  0.896216 -0.640154 -0.256062     48.000000
  0.832201 -0.576139 -0.192046     48.000000
  0.768185 -0.512124 -0.128031     48.000000
  0.704170 -0.448108 -0.064015     48.000000
  0.640154 -0.384093 -0.000000     24.000000
  0.960232 -0.704170 -0.192046     24.000000
  0.896216 -0.640154 -0.128031     48.000000
  0.832201 -0.576139 -0.064015     48.000000
  0.768185 -0.512124  0.000000     24.000000
  0.960232 -0.704170 -0.064015     24.000000
  0.896216 -0.640154  0.000000     24.000000
  0.960232 -0.576139 -0.192046     24.000000
  0.896216 -0.512124 -0.128031     48.000000
  0.960232 -0.576139 -0.064015     24.000000
  0.896216 -0.512124  0.000000     24.000000
 


--------------------------------------------------------------------------------------------------------




 Dimension of arrays:
   k-points           NKPTS =    120   k-points in BZ     NKDIM =    120   number of bands    NBANDS=     28
   number of dos      NEDOS =   3000   number of ions     NIONS =      4
   non local maximal  LDIM  =      6   non local SUM 2l+1 LMDIM =     18
   total plane-waves  NPLWV =  27000
   max r-space proj   IRMAX =      1   max aug-charges    IRDMAX= 190434
   dimension x,y,z NGX =    30 NGY =   30 NGZ =   30
   dimension x,y,z NGXF=    60 NGYF=   60 NGZF=   60
   support grid    NGXF=   120 NGYF=  120 NGZF=  120
   ions per type =               2   1   1
 NGX,Y,Z   is equivalent  to a cutoff of  12.31, 12.31, 12.31 a.u.
 NGXF,Y,Z  is equivalent  to a cutoff of  24.63, 24.63, 24.63 a.u.


 I would recommend the setting:
   dimension x,y,z NGX =    30 NGY =   30 NGZ =   30
 SYSTEM =  OPT Job       	                         
 POSCAR =  Mn V As                                 

 Startparameter for this run:
   NWRITE =      2    write-flag & timer
   PREC   = accura    normal or accurate (medium, high low for compatibility)
   ISTART =      0    job   : 0-new  1-cont  2-samecut
   ICHARG =      2    charge: 1-file 2-atom 10-const
   ISPIN  =      2    spin polarized calculation?
   LNONCOLLINEAR =      F non collinear calculations
   LSORBIT =      F    spin-orbit coupling
   INIWAV =      1    electr: 0-lowe 1-rand  2-diag
   LASPH  =      F    aspherical Exc in radial PAW
   METAGGA=      F    non-selfconsistent MetaGGA calc.

 Electronic Relaxation 1
   ENCUT  =  500.0 eV  36.75 Ry    6.06 a.u.   7.38  7.38  7.38*2*pi/ulx,y,z
   ENINI  =  500.0     initial cutoff
   ENAUG  =  598.5 eV  augmentation charge cutoff
   NELM   =    300;   NELMIN=  2; NELMDL= -6     # of ELM steps 
   EDIFF  = 0.1E-06   stopping-criterion for ELM
   LREAL  =      F    real-space projection
   NLSPLINE    = F    spline interpolate recip. space projectors
   LCOMPAT=      F    compatible to vasp.4.4
   GGA_COMPAT  = T    GGA compatible to vasp.4.4-vasp.4.6
   LMAXPAW     = -100 max onsite density
   LMAXMIX     =    2 max onsite mixed and CHGCAR
   VOSKOWN=      0    Vosko Wilk Nusair interpolation
   ROPT   =    0.00000   0.00000   0.00000
 Ionic relaxation
   EDIFFG = 0.1E-05   stopping-criterion for IOM
   NSW    =      0    number of steps for IOM
   NBLOCK =      1;   KBLOCK =      1    inner block; outer block 
   IBRION =     -1    ionic relax: 0-MD 1-quasi-New 2-CG
   NFREE  =      0    steps in history (QN), initial steepest desc. (CG)
   ISIF   =      3    stress and relaxation
   IWAVPR =     10    prediction:  0-non 1-charg 2-wave 3-comb
   ISYM   =      2    0-nonsym 1-usesym 2-fastsym
   LCORR  =      T    Harris-Foulkes like correction to forces

   POTIM  = 0.1000    time-step for ionic-motion
   TEIN   =    0.0    initial temperature
   TEBEG  =    0.0;   TEEND  =   0.0 temperature during run
   SMASS  =  -3.00    Nose mass-parameter (am)
   estimated Nose-frequenzy (Omega)   =  0.10E-29 period in steps =****** mass=  -0.375E-27a.u.
   SCALEE = 1.0000    scale energy and forces
   NPACO  =    256;   APACO  = 16.0  distance and # of slots for P.C.
   PSTRESS=    0.0 pullay stress

  Mass of Ions in am
   POMASS =  54.94 50.94 74.92
  Ionic Valenz
   ZVAL   =  13.00 11.00  5.00
  Atomic Wigner-Seitz radii
   RWIGS  =  -1.00 -1.00 -1.00
  virtual crystal weights 
   VCA    =   1.00  1.00  1.00
   NELECT =      42.0000    total number of electrons
   NUPDOWN=      -1.0000    fix difference up-down

 DOS related values:
   EMIN   =  10.00;   EMAX   =-10.00  energy-range for DOS
   EFERMI =   0.00
   ISMEAR =     0;   SIGMA  =   0.05  broadening in eV -4-tet -1-fermi 0-gaus

 Electronic relaxation 2 (details)
   IALGO  =     68    algorithm
   LDIAG  =      T    sub-space diagonalisation (order eigenvalues)
   LSUBROT=      F    optimize rotation matrix (better conditioning)
   TURBO    =      0    0=normal 1=particle mesh
   IRESTART =      0    0=no restart 2=restart with 2 vectors
   NREBOOT  =      0    no. of reboots
   NMIN     =      0    reboot dimension
   EREF     =   0.00    reference energy to select bands
   IMIX   =      4    mixing-type and parameters
     AMIX     =   0.40;   BMIX     =  1.00
     AMIX_MAG =   1.60;   BMIX_MAG =  1.00
     AMIN     =   0.10
     WC   =   100.;   INIMIX=   1;  MIXPRE=   1;  MAXMIX= -45

 Intra band minimization:
   WEIMIN = 0.0000     energy-eigenvalue tresh-hold
   EBREAK =  0.89E-09  absolut break condition
   DEPER  =   0.30     relativ break condition  

   TIME   =   0.40     timestep for ELM

  volume/ion in A,a.u.               =      11.74        79.26
  Fermi-wavevector in a.u.,A,eV,Ry     =   1.577095  2.980278 33.840808  2.487229
  Thomas-Fermi vector in A             =   2.677829
 
 Write flags
   LWAVE  =      F    write WAVECAR
   LCHARG =      T    write CHGCAR
   LVTOT  =      F    write LOCPOT, total local potential
   LVHAR  =      F    write LOCPOT, Hartree potential only
   LELF   =      F    write electronic localiz. function (ELF)
   LORBIT =     11    0 simple, 1 ext, 2 COOP (PROOUT)


 Dipole corrections
   LMONO  =      F    monopole corrections only (constant potential shift)
   LDIPOL =      F    correct potential (dipole corrections)
   IDIPOL =      0    1-x, 2-y, 3-z, 4-all directions 
   EPSILON=  1.0000000 bulk dielectric constant

 Exchange correlation treatment:
   GGA     =    --    GGA type
   LEXCH   =     8    internal setting for exchange type
   VOSKOWN=      0    Vosko Wilk Nusair interpolation
   LHFCALC =     F    Hartree Fock is set to
   LHFONE  =     F    Hartree Fock one center treatment
   AEXX    =    0.0000 exact exchange contribution

 Linear response parameters
   LEPSILON=     F    determine dielectric tensor
   LRPA    =     F    only Hartree local field effects (RPA)
   LNABLA  =     F    use nabla operator in PAW spheres
   LVEL    =     F    velocity operator in full k-point grid
   LINTERFAST=   F  fast interpolation
   KINTER  =     0    interpolate to denser k-point grid
   CSHIFT  =0.1000    complex shift for real part using Kramers Kronig
   OMEGAMAX=  -1.0    maximum frequency
   DEG_THRESHOLD= 0.2000000E-02 threshold for treating states as degnerate
   RTIME   =    0.100 relaxation time in fs

 Orbital magnetization related:
   ORBITALMAG=     F  switch on orbital magnetization
   LCHIMAG   =     F  perturbation theory with respect to B field
   DQ        =  0.001000  dq finite difference perturbation B field



--------------------------------------------------------------------------------------------------------


 Static calculation
 charge density and potential will be updated during run
 spin polarized calculation
 RMM-DIIS sequential band-by-band and
  variant of blocked Davidson during initial phase
 perform sub-space diagonalisation
    before iterative eigenvector-optimisation
 modified Broyden-mixing scheme, WC =      100.0
 initial mixing is a Kerker type mixing with AMIX =  0.4000 and BMIX =      1.0000
 Hartree-type preconditioning will be used
 using additional bands            7
 reciprocal scheme for non local part
 use partial core corrections
 calculate Harris-corrections to forces 
   (improved forces if not selfconsistent)
 use gradient corrections 
 use of overlap-Matrix (Vanderbilt PP)
 Gauss-broadening in eV      SIGMA  =   0.05


--------------------------------------------------------------------------------------------------------


  energy-cutoff  :      500.00
  volume of cell :       46.98
      direct lattice vectors                 reciprocal lattice vectors
     0.000000000  2.863892340  2.863892340    -0.174587568  0.174587568  0.174587568
     2.863892340  0.000000000  2.863892340     0.174587568 -0.174587568  0.174587568
     2.863892340  2.863892340  0.000000000     0.174587568  0.174587568 -0.174587568

  length of vectors
     4.050155388  4.050155388  4.050155388     0.302394539  0.302394539  0.302394539


 
 k-points in units of 2pi/SCALE and weight: Automatic Mesh # Generates Automatically
   0.00000000  0.00000000  0.00000000       0.000
  -0.06401544  0.06401544  0.06401544       0.002
  -0.12803088  0.12803088  0.12803088       0.002
  -0.19204633  0.19204633  0.19204633       0.002
  -0.25606177  0.25606177  0.25606177       0.002
  -0.32007721  0.32007721  0.32007721       0.002
  -0.38409265  0.38409265  0.38409265       0.002
  -0.44810809  0.44810809  0.44810809       0.002
   0.00000000  0.00000000  0.12803088       0.002
  -0.06401544  0.06401544  0.19204633       0.007
  -0.12803088  0.12803088  0.25606177       0.007
  -0.19204633  0.19204633  0.32007721       0.007
  -0.25606177  0.25606177  0.38409265       0.007
  -0.32007721  0.32007721  0.44810809       0.007
  -0.38409265  0.38409265  0.51212353       0.007
   0.51212353 -0.51212353 -0.38409265       0.007
   0.44810809 -0.44810809 -0.32007721       0.007
   0.38409265 -0.38409265 -0.25606177       0.007
   0.32007721 -0.32007721 -0.19204633       0.007
   0.25606177 -0.25606177 -0.12803088       0.007
   0.19204633 -0.19204633 -0.06401544       0.007
   0.12803088 -0.12803088  0.00000000       0.004
   0.00000000  0.00000000  0.25606177       0.002
  -0.06401544  0.06401544  0.32007721       0.007
  -0.12803088  0.12803088  0.38409265       0.007
  -0.19204633  0.19204633  0.44810809       0.007
  -0.25606177  0.25606177  0.51212353       0.007
  -0.32007721  0.32007721  0.57613898       0.007
   0.57613898 -0.57613898 -0.32007721       0.007
   0.51212353 -0.51212353 -0.25606177       0.007
   0.44810809 -0.44810809 -0.19204633       0.007
   0.38409265 -0.38409265 -0.12803088       0.007
   0.32007721 -0.32007721 -0.06401544       0.007
   0.25606177 -0.25606177  0.00000000       0.004
   0.00000000  0.00000000  0.38409265       0.002
  -0.06401544  0.06401544  0.44810809       0.007
  -0.12803088  0.12803088  0.51212353       0.007
  -0.19204633  0.19204633  0.57613898       0.007
  -0.25606177  0.25606177  0.64015442       0.007
   0.64015442 -0.64015442 -0.25606177       0.007
   0.57613898 -0.57613898 -0.19204633       0.007
   0.51212353 -0.51212353 -0.12803088       0.007
   0.44810809 -0.44810809 -0.06401544       0.007
   0.38409265 -0.38409265  0.00000000       0.004
   0.00000000  0.00000000  0.51212353       0.002
  -0.06401544  0.06401544  0.57613898       0.007
  -0.12803088  0.12803088  0.64015442       0.007
  -0.19204633  0.19204633  0.70416986       0.007
   0.70416986 -0.70416986 -0.19204633       0.007
   0.64015442 -0.64015442 -0.12803088       0.007
   0.57613898 -0.57613898 -0.06401544       0.007
   0.51212353 -0.51212353  0.00000000       0.004
   0.00000000  0.00000000  0.64015442       0.002
  -0.06401544  0.06401544  0.70416986       0.007
  -0.12803088  0.12803088  0.76818530       0.007
   0.76818530 -0.76818530 -0.12803088       0.007
   0.70416986 -0.70416986 -0.06401544       0.007
   0.64015442 -0.64015442  0.00000000       0.004
   0.00000000  0.00000000  0.76818530       0.002
  -0.06401544  0.06401544  0.83220074       0.007
   0.83220074 -0.83220074 -0.06401544       0.007
   0.76818530 -0.76818530  0.00000000       0.004
   0.00000000  0.00000000  0.89621618       0.002
   0.89621618 -0.89621618  0.00000000       0.004
  -0.00000000  0.12803088  0.25606177       0.007
  -0.06401544  0.19204633  0.32007721       0.014
  -0.12803088  0.25606177  0.38409265       0.014
  -0.19204633  0.32007721  0.44810809       0.014
  -0.25606177  0.38409265  0.51212353       0.014
   0.64015442 -0.51212353 -0.38409265       0.014
  -0.00000000  0.12803088  0.38409265       0.007
  -0.06401544  0.19204633  0.44810809       0.014
  -0.12803088  0.25606177  0.51212353       0.014
  -0.19204633  0.32007721  0.57613898       0.014
   0.70416986 -0.57613898 -0.32007721       0.014
   0.64015442 -0.51212353 -0.25606177       0.014
   0.57613898 -0.44810809 -0.19204633       0.014
   0.51212353 -0.38409265 -0.12803088       0.014
   0.44810809 -0.32007721 -0.06401544       0.014
   0.38409265 -0.25606177  0.00000000       0.007
  -0.00000000  0.12803088  0.51212353       0.007
  -0.06401544  0.19204633  0.57613898       0.014
  -0.12803088  0.25606177  0.64015442       0.014
   0.76818530 -0.64015442 -0.25606177       0.014
   0.70416986 -0.57613898 -0.19204633       0.014
   0.64015442 -0.51212353 -0.12803088       0.014
   0.57613898 -0.44810809 -0.06401544       0.014
   0.51212353 -0.38409265  0.00000000       0.007
  -0.00000000  0.12803088  0.64015442       0.007
  -0.06401544  0.19204633  0.70416986       0.014
   0.83220074 -0.70416986 -0.19204633       0.014
   0.76818530 -0.64015442 -0.12803088       0.014
   0.70416986 -0.57613898 -0.06401544       0.014
   0.64015442 -0.51212353 -0.00000000       0.007
  -0.00000000  0.12803088  0.76818530       0.007
   0.89621618 -0.76818530 -0.12803088       0.014
   0.83220074 -0.70416986 -0.06401544       0.014
   0.76818530 -0.64015442  0.00000000       0.007
   0.96023163 -0.83220074 -0.06401544       0.007
   0.89621618 -0.76818530  0.00000000       0.007
   0.00000000  0.25606177  0.51212353       0.007
  -0.06401544  0.32007721  0.57613898       0.014
   0.83220074 -0.57613898 -0.32007721       0.014
   0.76818530 -0.51212353 -0.25606177       0.014
  -0.00000000  0.25606177  0.64015442       0.007
   0.89621618 -0.64015442 -0.25606177       0.014
   0.83220074 -0.57613898 -0.19204633       0.014
   0.76818530 -0.51212353 -0.12803088       0.014
   0.70416986 -0.44810809 -0.06401544       0.014
   0.64015442 -0.38409265 -0.00000000       0.007
   0.96023163 -0.70416986 -0.19204633       0.007
   0.89621618 -0.64015442 -0.12803088       0.014
   0.83220074 -0.57613898 -0.06401544       0.014
   0.76818530 -0.51212353  0.00000000       0.007
   0.96023163 -0.70416986 -0.06401544       0.007
   0.89621618 -0.64015442  0.00000000       0.007
   0.96023163 -0.57613898 -0.19204633       0.007
   0.89621618 -0.51212353 -0.12803088       0.014
   0.96023163 -0.57613898 -0.06401544       0.007
   0.89621618 -0.51212353  0.00000000       0.007
 
 k-points in reciprocal lattice and weights: Automatic Mesh # Generates Automatically
   0.00000000  0.00000000  0.00000000       0.000
   0.06666667  0.00000000  0.00000000       0.002
   0.13333333  0.00000000  0.00000000       0.002
   0.20000000  0.00000000  0.00000000       0.002
   0.26666667  0.00000000  0.00000000       0.002
   0.33333333  0.00000000  0.00000000       0.002
   0.40000000  0.00000000  0.00000000       0.002
   0.46666667  0.00000000  0.00000000       0.002
   0.06666667  0.06666667  0.00000000       0.002
   0.13333333  0.06666667  0.00000000       0.007
   0.20000000  0.06666667  0.00000000       0.007
   0.26666667  0.06666667  0.00000000       0.007
   0.33333333  0.06666667  0.00000000       0.007
   0.40000000  0.06666667  0.00000000       0.007
   0.46666667  0.06666667  0.00000000       0.007
  -0.46666667  0.06666667  0.00000000       0.007
  -0.40000000  0.06666667  0.00000000       0.007
  -0.33333333  0.06666667  0.00000000       0.007
  -0.26666667  0.06666667  0.00000000       0.007
  -0.20000000  0.06666667  0.00000000       0.007
  -0.13333333  0.06666667  0.00000000       0.007
  -0.06666667  0.06666667  0.00000000       0.004
   0.13333333  0.13333333  0.00000000       0.002
   0.20000000  0.13333333  0.00000000       0.007
   0.26666667  0.13333333  0.00000000       0.007
   0.33333333  0.13333333  0.00000000       0.007
   0.40000000  0.13333333  0.00000000       0.007
   0.46666667  0.13333333  0.00000000       0.007
  -0.46666667  0.13333333  0.00000000       0.007
  -0.40000000  0.13333333  0.00000000       0.007
  -0.33333333  0.13333333  0.00000000       0.007
  -0.26666667  0.13333333  0.00000000       0.007
  -0.20000000  0.13333333  0.00000000       0.007
  -0.13333333  0.13333333  0.00000000       0.004
   0.20000000  0.20000000  0.00000000       0.002
   0.26666667  0.20000000  0.00000000       0.007
   0.33333333  0.20000000  0.00000000       0.007
   0.40000000  0.20000000  0.00000000       0.007
   0.46666667  0.20000000  0.00000000       0.007
  -0.46666667  0.20000000  0.00000000       0.007
  -0.40000000  0.20000000  0.00000000       0.007
  -0.33333333  0.20000000  0.00000000       0.007
  -0.26666667  0.20000000  0.00000000       0.007
  -0.20000000  0.20000000  0.00000000       0.004
   0.26666667  0.26666667  0.00000000       0.002
   0.33333333  0.26666667  0.00000000       0.007
   0.40000000  0.26666667  0.00000000       0.007
   0.46666667  0.26666667  0.00000000       0.007
  -0.46666667  0.26666667  0.00000000       0.007
  -0.40000000  0.26666667  0.00000000       0.007
  -0.33333333  0.26666667  0.00000000       0.007
  -0.26666667  0.26666667  0.00000000       0.004
   0.33333333  0.33333333  0.00000000       0.002
   0.40000000  0.33333333  0.00000000       0.007
   0.46666667  0.33333333  0.00000000       0.007
  -0.46666667  0.33333333  0.00000000       0.007
  -0.40000000  0.33333333  0.00000000       0.007
  -0.33333333  0.33333333  0.00000000       0.004
   0.40000000  0.40000000  0.00000000       0.002
   0.46666667  0.40000000  0.00000000       0.007
  -0.46666667  0.40000000  0.00000000       0.007
  -0.40000000  0.40000000  0.00000000       0.004
   0.46666667  0.46666667  0.00000000       0.002
  -0.46666667  0.46666667  0.00000000       0.004
   0.20000000  0.13333333  0.06666667       0.007
   0.26666667  0.13333333  0.06666667       0.014
   0.33333333  0.13333333  0.06666667       0.014
   0.40000000  0.13333333  0.06666667       0.014
   0.46666667  0.13333333  0.06666667       0.014
  -0.46666667  0.13333333  0.06666667       0.014
   0.26666667  0.20000000  0.06666667       0.007
   0.33333333  0.20000000  0.06666667       0.014
   0.40000000  0.20000000  0.06666667       0.014
   0.46666667  0.20000000  0.06666667       0.014
  -0.46666667  0.20000000  0.06666667       0.014
  -0.40000000  0.20000000  0.06666667       0.014
  -0.33333333  0.20000000  0.06666667       0.014
  -0.26666667  0.20000000  0.06666667       0.014
  -0.20000000  0.20000000  0.06666667       0.014
  -0.13333333  0.20000000  0.06666667       0.007
   0.33333333  0.26666667  0.06666667       0.007
   0.40000000  0.26666667  0.06666667       0.014
   0.46666667  0.26666667  0.06666667       0.014
  -0.46666667  0.26666667  0.06666667       0.014
  -0.40000000  0.26666667  0.06666667       0.014
  -0.33333333  0.26666667  0.06666667       0.014
  -0.26666667  0.26666667  0.06666667       0.014
  -0.20000000  0.26666667  0.06666667       0.007
   0.40000000  0.33333333  0.06666667       0.007
   0.46666667  0.33333333  0.06666667       0.014
  -0.46666667  0.33333333  0.06666667       0.014
  -0.40000000  0.33333333  0.06666667       0.014
  -0.33333333  0.33333333  0.06666667       0.014
  -0.26666667  0.33333333  0.06666667       0.007
   0.46666667  0.40000000  0.06666667       0.007
  -0.46666667  0.40000000  0.06666667       0.014
  -0.40000000  0.40000000  0.06666667       0.014
  -0.33333333  0.40000000  0.06666667       0.007
  -0.46666667  0.46666667  0.06666667       0.007
  -0.40000000  0.46666667  0.06666667       0.007
   0.40000000  0.26666667  0.13333333       0.007
   0.46666667  0.26666667  0.13333333       0.014
  -0.46666667  0.26666667  0.13333333       0.014
  -0.40000000  0.26666667  0.13333333       0.014
   0.46666667  0.33333333  0.13333333       0.007
  -0.46666667  0.33333333  0.13333333       0.014
  -0.40000000  0.33333333  0.13333333       0.014
  -0.33333333  0.33333333  0.13333333       0.014
  -0.26666667  0.33333333  0.13333333       0.014
  -0.20000000  0.33333333  0.13333333       0.007
  -0.46666667  0.40000000  0.13333333       0.007
  -0.40000000  0.40000000  0.13333333       0.014
  -0.33333333  0.40000000  0.13333333       0.014
  -0.26666667  0.40000000  0.13333333       0.007
  -0.40000000  0.46666667  0.13333333       0.007
  -0.33333333  0.46666667  0.13333333       0.007
  -0.40000000  0.40000000  0.20000000       0.007
  -0.33333333  0.40000000  0.20000000       0.014
  -0.33333333  0.46666667  0.20000000       0.007
  -0.26666667  0.46666667  0.20000000       0.007
 
 position of ions in fractional coordinates (direct lattice) 
   0.75000000  0.75000000  0.75000000
   0.25000000  0.25000000  0.25000000
   0.00000000  0.00000000  0.00000000
   0.50000000  0.50000000  0.50000000
 
 position of ions in cartesian coordinates  (Angst):
   4.29583851  4.29583851  4.29583851
   1.43194617  1.43194617  1.43194617
   0.00000000  0.00000000  0.00000000
   2.86389234  2.86389234  2.86389234
 


--------------------------------------------------------------------------------------------------------


 k-point  1 :   0.0000 0.0000 0.0000  plane waves:    1243
 k-point  2 :   0.0667 0.0000 0.0000  plane waves:    1230
 k-point  3 :   0.1333 0.0000 0.0000  plane waves:    1209
 k-point  4 :   0.2000 0.0000 0.0000  plane waves:    1209
 k-point  5 :   0.2667 0.0000 0.0000  plane waves:    1203
 k-point  6 :   0.3333 0.0000 0.0000  plane waves:    1176
 k-point  7 :   0.4000 0.0000 0.0000  plane waves:    1185
 k-point  8 :   0.4667 0.0000 0.0000  plane waves:    1182
 k-point  9 :   0.0667 0.0667 0.0000  plane waves:    1227
 k-point 10 :   0.1333 0.0667 0.0000  plane waves:    1211
 k-point 11 :   0.2000 0.0667 0.0000  plane waves:    1198
 k-point 12 :   0.2667 0.0667 0.0000  plane waves:    1200
 k-point 13 :   0.3333 0.0667 0.0000  plane waves:    1193
 k-point 14 :   0.4000 0.0667 0.0000  plane waves:    1186
 k-point 15 :   0.4667 0.0667 0.0000  plane waves:    1186
 k-point 16 :  -0.4667 0.0667 0.0000  plane waves:    1189
 k-point 17 :  -0.4000 0.0667 0.0000  plane waves:    1187
 k-point 18 :  -0.3333 0.0667 0.0000  plane waves:    1192
 k-point 19 :  -0.2667 0.0667 0.0000  plane waves:    1193
 k-point 20 :  -0.2000 0.0667 0.0000  plane waves:    1206
 k-point 21 :  -0.1333 0.0667 0.0000  plane waves:    1202
 k-point 22 :  -0.0667 0.0667 0.0000  plane waves:    1213
 k-point 23 :   0.1333 0.1333 0.0000  plane waves:    1199
 k-point 24 :   0.2000 0.1333 0.0000  plane waves:    1198
 k-point 25 :   0.2667 0.1333 0.0000  plane waves:    1196
 k-point 26 :   0.3333 0.1333 0.0000  plane waves:    1198
 k-point 27 :   0.4000 0.1333 0.0000  plane waves:    1198
 k-point 28 :   0.4667 0.1333 0.0000  plane waves:    1194
 k-point 29 :  -0.4667 0.1333 0.0000  plane waves:    1193
 k-point 30 :  -0.4000 0.1333 0.0000  plane waves:    1187
 k-point 31 :  -0.3333 0.1333 0.0000  plane waves:    1190
 k-point 32 :  -0.2667 0.1333 0.0000  plane waves:    1193
 k-point 33 :  -0.2000 0.1333 0.0000  plane waves:    1203
 k-point 34 :  -0.1333 0.1333 0.0000  plane waves:    1197
 k-point 35 :   0.2000 0.2000 0.0000  plane waves:    1199
 k-point 36 :   0.2667 0.2000 0.0000  plane waves:    1207
 k-point 37 :   0.3333 0.2000 0.0000  plane waves:    1201
 k-point 38 :   0.4000 0.2000 0.0000  plane waves:    1189
 k-point 39 :   0.4667 0.2000 0.0000  plane waves:    1196
 k-point 40 :  -0.4667 0.2000 0.0000  plane waves:    1195
 k-point 41 :  -0.4000 0.2000 0.0000  plane waves:    1184
 k-point 42 :  -0.3333 0.2000 0.0000  plane waves:    1183
 k-point 43 :  -0.2667 0.2000 0.0000  plane waves:    1186
 k-point 44 :  -0.2000 0.2000 0.0000  plane waves:    1199
 k-point 45 :   0.2667 0.2667 0.0000  plane waves:    1198
 k-point 46 :   0.3333 0.2667 0.0000  plane waves:    1199
 k-point 47 :   0.4000 0.2667 0.0000  plane waves:    1200
 k-point 48 :   0.4667 0.2667 0.0000  plane waves:    1197
 k-point 49 :  -0.4667 0.2667 0.0000  plane waves:    1193
 k-point 50 :  -0.4000 0.2667 0.0000  plane waves:    1186
 k-point 51 :  -0.3333 0.2667 0.0000  plane waves:    1185
 k-point 52 :  -0.2667 0.2667 0.0000  plane waves:    1189
 k-point 53 :   0.3333 0.3333 0.0000  plane waves:    1218
 k-point 54 :   0.4000 0.3333 0.0000  plane waves:    1200
 k-point 55 :   0.4667 0.3333 0.0000  plane waves:    1195
 k-point 56 :  -0.4667 0.3333 0.0000  plane waves:    1189
 k-point 57 :  -0.4000 0.3333 0.0000  plane waves:    1184
 k-point 58 :  -0.3333 0.3333 0.0000  plane waves:    1196
 k-point 59 :   0.4000 0.4000 0.0000  plane waves:    1190
 k-point 60 :   0.4667 0.4000 0.0000  plane waves:    1194
 k-point 61 :  -0.4667 0.4000 0.0000  plane waves:    1186
 k-point 62 :  -0.4000 0.4000 0.0000  plane waves:    1182
 k-point 63 :   0.4667 0.4667 0.0000  plane waves:    1182
 k-point 64 :  -0.4667 0.4667 0.0000  plane waves:    1182
 k-point 65 :   0.2000 0.1333 0.0667  plane waves:    1200
 k-point 66 :   0.2667 0.1333 0.0667  plane waves:    1201
 k-point 67 :   0.3333 0.1333 0.0667  plane waves:    1202
 k-point 68 :   0.4000 0.1333 0.0667  plane waves:    1188
 k-point 69 :   0.4667 0.1333 0.0667  plane waves:    1194
 k-point 70 :  -0.4667 0.1333 0.0667  plane waves:    1191
 k-point 71 :   0.2667 0.2000 0.0667  plane waves:    1200
 k-point 72 :   0.3333 0.2000 0.0667  plane waves:    1198
 k-point 73 :   0.4000 0.2000 0.0667  plane waves:    1192
 k-point 74 :   0.4667 0.2000 0.0667  plane waves:    1192
 k-point 75 :  -0.4667 0.2000 0.0667  plane waves:    1191
 k-point 76 :  -0.4000 0.2000 0.0667  plane waves:    1189
 k-point 77 :  -0.3333 0.2000 0.0667  plane waves:    1188
 k-point 78 :  -0.2667 0.2000 0.0667  plane waves:    1185
 k-point 79 :  -0.2000 0.2000 0.0667  plane waves:    1191
 k-point 80 :  -0.1333 0.2000 0.0667  plane waves:    1196
 k-point 81 :   0.3333 0.2667 0.0667  plane waves:    1202
 k-point 82 :   0.4000 0.2667 0.0667  plane waves:    1195
 k-point 83 :   0.4667 0.2667 0.0667  plane waves:    1190
 k-point 84 :  -0.4667 0.2667 0.0667  plane waves:    1196
 k-point 85 :  -0.4000 0.2667 0.0667  plane waves:    1188
 k-point 86 :  -0.3333 0.2667 0.0667  plane waves:    1187
 k-point 87 :  -0.2667 0.2667 0.0667  plane waves:    1188
 k-point 88 :  -0.2000 0.2667 0.0667  plane waves:    1195
 k-point 89 :   0.4000 0.3333 0.0667  plane waves:    1199
 k-point 90 :   0.4667 0.3333 0.0667  plane waves:    1197
 k-point 91 :  -0.4667 0.3333 0.0667  plane waves:    1193
 k-point 92 :  -0.4000 0.3333 0.0667  plane waves:    1183
 k-point 93 :  -0.3333 0.3333 0.0667  plane waves:    1181
 k-point 94 :  -0.2667 0.3333 0.0667  plane waves:    1184
 k-point 95 :   0.4667 0.4000 0.0667  plane waves:    1195
 k-point 96 :  -0.4667 0.4000 0.0667  plane waves:    1189
 k-point 97 :  -0.4000 0.4000 0.0667  plane waves:    1187
 k-point 98 :  -0.3333 0.4000 0.0667  plane waves:    1187
 k-point 99 :  -0.4667 0.4667 0.0667  plane waves:    1194
 k-point ** :  -0.4000 0.4667 0.0667  plane waves:    1186
 k-point ** :   0.4000 0.2667 0.1333  plane waves:    1198
 k-point ** :   0.4667 0.2667 0.1333  plane waves:    1192
 k-point ** :  -0.4667 0.2667 0.1333  plane waves:    1193
 k-point ** :  -0.4000 0.2667 0.1333  plane waves:    1188
 k-point ** :   0.4667 0.3333 0.1333  plane waves:    1196
 k-point ** :  -0.4667 0.3333 0.1333  plane waves:    1196
 k-point ** :  -0.4000 0.3333 0.1333  plane waves:    1197
 k-point ** :  -0.3333 0.3333 0.1333  plane waves:    1185
 k-point ** :  -0.2667 0.3333 0.1333  plane waves:    1194
 k-point ** :  -0.2000 0.3333 0.1333  plane waves:    1191
 k-point ** :  -0.4667 0.4000 0.1333  plane waves:    1193
 k-point ** :  -0.4000 0.4000 0.1333  plane waves:    1190
 k-point ** :  -0.3333 0.4000 0.1333  plane waves:    1186
 k-point ** :  -0.2667 0.4000 0.1333  plane waves:    1187
 k-point ** :  -0.4000 0.4667 0.1333  plane waves:    1187
 k-point ** :  -0.3333 0.4667 0.1333  plane waves:    1187
 k-point ** :  -0.4000 0.4000 0.2000  plane waves:    1197
 k-point ** :  -0.3333 0.4000 0.2000  plane waves:    1192
 k-point ** :  -0.3333 0.4667 0.2000  plane waves:    1189
 k-point ** :  -0.2667 0.4667 0.2000  plane waves:    1192

 maximum and minimum number of plane-waves per node :      1243     1176

 maximum number of plane-waves:      1243
 maximum index in each direction: 
   IXMAX=    7   IYMAX=    7   IZMAX=    7
   IXMIN=   -7   IYMIN=   -7   IZMIN=   -7

 NGX is ok and might be reduce to  30
 NGY is ok and might be reduce to  30
 NGZ is ok and might be reduce to  30

 serial   3D FFT for wavefunctions
 parallel 3D FFT for charge:
    minimum data exchange during FFTs selected (reduces bandwidth)


 total amount of memory used by VASP on root node   145146. kBytes
========================================================================

   base      :      30000. kBytes
   nonl-proj :      64568. kBytes
   fftplans  :       8118. kBytes
   grid      :       7070. kBytes
   one-center:        124. kBytes
   wavefun   :      35266. kBytes
 
     INWAV:  cpu time    0.0010: real time    0.0001
 Broyden mixing: mesh for mixing (old mesh)
   NGX = 15   NGY = 15   NGZ = 15
  (NGX  = 60   NGY  = 60   NGZ  = 60)
  gives a total of   3375 points

 initial charge density was supplied:
 charge density of overlapping atoms calculated
 number of electron      42.0000000 magnetization      -0.5000000
 keeping initial charge density in first step


--------------------------------------------------------------------------------------------------------


 Maximum index for augmentation-charges        46243 (set IRDMAX)


--------------------------------------------------------------------------------------------------------


 First call to EWALD:  gamma=   0.491
 Maximum number of real-space cells 3x 3x 3
 Maximum number of reciprocal cells 3x 3x 3

 FEWALD executed in parallel
    FEWALD:  cpu time    0.0020: real time    0.0011


----------------------------------------- Iteration    1(   1)  ---------------------------------------


    POTLOK:  cpu time    0.0590: real time    0.0601
    SETDIJ:  cpu time    0.1700: real time    0.1695
     EDDAV:  cpu time    6.4530: real time    6.4642
       DOS:  cpu time    0.0040: real time    0.0051
    --------------------------------------------
      LOOP:  cpu time    6.6880: real time    6.7026

 eigenvalue-minimisations  : 14280
 total energy-change (2. order) : 0.4776970E+03  (-0.2300064E+04)
 number of electron      42.0000000 magnetization      -0.5000000
 augmentation part       42.0000000 magnetization      -0.5000000

 Free energy of the ion-electron system (eV)
  ---------------------------------------------------
  alpha Z        PSCENC =       320.20819035
  Ewald energy   TEWEN  =     -4241.76706804
  -Hartree energ DENC   =     -1360.67770205
  -exchange      EXHF   =         0.00000000
  -V(xc)+E(xc)   XCENC  =       158.01032615
  PAW double counting   =      4526.91047494    -4582.83274487
  entropy T*S    EENTRO =        -0.00213454
  eigenvalues    EBANDS =       115.52626140
  atomic energy  EATOM  =      5542.32138669
  Solvation  Ediel_sol  =         0.00000000
  ---------------------------------------------------
  free energy    TOTEN  =       477.69699003 eV

  energy without entropy =      477.69912457  energy(sigma->0) =      477.69805730


--------------------------------------------------------------------------------------------------------




----------------------------------------- Iteration    1(   2)  ---------------------------------------


     EDDAV:  cpu time    6.1921: real time    6.2002
       DOS:  cpu time    0.0050: real time    0.0058
    --------------------------------------------
      LOOP:  cpu time    6.1981: real time    6.2093

 eigenvalue-minimisations  : 13448
 total energy-change (2. order) :-0.4838067E+03  (-0.4727034E+03)
 number of electron      42.0000000 magnetization      -0.5000000
 augmentation part       42.0000000 magnetization      -0.5000000

 Free energy of the ion-electron system (eV)
  ---------------------------------------------------
  alpha Z        PSCENC =       320.20819035
  Ewald energy   TEWEN  =     -4241.76706804
  -Hartree energ DENC   =     -1360.67770205
  -exchange      EXHF   =         0.00000000
  -V(xc)+E(xc)   XCENC  =       158.01032615
  PAW double counting   =      4526.91047494    -4582.83274487
  entropy T*S    EENTRO =        -0.00171583
  eigenvalues    EBANDS =      -368.28090093
  atomic energy  EATOM  =      5542.32138669
  Solvation  Ediel_sol  =         0.00000000
  ---------------------------------------------------
  free energy    TOTEN  =        -6.10975359 eV

  energy without entropy =       -6.10803777  energy(sigma->0) =       -6.10889568


--------------------------------------------------------------------------------------------------------




----------------------------------------- Iteration    1(   3)  ---------------------------------------


     EDDAV:  cpu time    6.8040: real time    6.8123
       DOS:  cpu time    0.0060: real time    0.0057
    --------------------------------------------
      LOOP:  cpu time    6.8110: real time    6.8213

 eigenvalue-minimisations  : 15448
 total energy-change (2. order) :-0.2774459E+02  (-0.2663402E+02)
 number of electron      42.0000000 magnetization      -0.5000000
 augmentation part       42.0000000 magnetization      -0.5000000

 Free energy of the ion-electron system (eV)
  ---------------------------------------------------
  alpha Z        PSCENC =       320.20819035
  Ewald energy   TEWEN  =     -4241.76706804
  -Hartree energ DENC   =     -1360.67770205
  -exchange      EXHF   =         0.00000000
  -V(xc)+E(xc)   XCENC  =       158.01032615
  PAW double counting   =      4526.91047494    -4582.83274487
  entropy T*S    EENTRO =        -0.00122907
  eigenvalues    EBANDS =      -396.02597437
  atomic energy  EATOM  =      5542.32138669
  Solvation  Ediel_sol  =         0.00000000
  ---------------------------------------------------
  free energy    TOTEN  =       -33.85434028 eV

  energy without entropy =      -33.85311121  energy(sigma->0) =      -33.85372574


--------------------------------------------------------------------------------------------------------




----------------------------------------- Iteration    1(   4)  ---------------------------------------


     EDDAV:  cpu time    7.1239: real time    7.1321
       DOS:  cpu time    0.0070: real time    0.0061
    --------------------------------------------
      LOOP:  cpu time    7.1309: real time    7.1418

 eigenvalue-minimisations  : 16456
 total energy-change (2. order) :-0.9601089E+00  (-0.9482074E+00)
 number of electron      42.0000000 magnetization      -0.5000000
 augmentation part       42.0000000 magnetization      -0.5000000

 Free energy of the ion-electron system (eV)
  ---------------------------------------------------
  alpha Z        PSCENC =       320.20819035
  Ewald energy   TEWEN  =     -4241.76706804
  -Hartree energ DENC   =     -1360.67770205
  -exchange      EXHF   =         0.00000000
  -V(xc)+E(xc)   XCENC  =       158.01032615
  PAW double counting   =      4526.91047494    -4582.83274487
  entropy T*S    EENTRO =        -0.00124119
  eigenvalues    EBANDS =      -396.98607115
  atomic energy  EATOM  =      5542.32138669
  Solvation  Ediel_sol  =         0.00000000
  ---------------------------------------------------
  free energy    TOTEN  =       -34.81444917 eV

  energy without entropy =      -34.81320798  energy(sigma->0) =      -34.81382858


--------------------------------------------------------------------------------------------------------




----------------------------------------- Iteration    1(   5)  ---------------------------------------


     EDDAV:  cpu time    6.9389: real time    6.9474
       DOS:  cpu time    0.0050: real time    0.0063
    --------------------------------------------
      LOOP:  cpu time    6.9449: real time    6.9573

 eigenvalue-minimisations  : 15872
 total energy-change (2. order) :-0.2124715E-01  (-0.2122843E-01)
 number of electron      42.0000000 magnetization      -0.5000000
 augmentation part       42.0000000 magnetization      -0.5000000

 Free energy of the ion-electron system (eV)
  ---------------------------------------------------
  alpha Z        PSCENC =       320.20819035
  Ewald energy   TEWEN  =     -4241.76706804
  -Hartree energ DENC   =     -1360.67770205
  -exchange      EXHF   =         0.00000000
  -V(xc)+E(xc)   XCENC  =       158.01032615
  PAW double counting   =      4526.91047494    -4582.83274487
  entropy T*S    EENTRO =        -0.00122355
  eigenvalues    EBANDS =      -397.00733594
  atomic energy  EATOM  =      5542.32138669
  Solvation  Ediel_sol  =         0.00000000
  ---------------------------------------------------
  free energy    TOTEN  =       -34.83569632 eV

  energy without entropy =      -34.83447277  energy(sigma->0) =      -34.83508455


--------------------------------------------------------------------------------------------------------




----------------------------------------- Iteration    1(   6)  ---------------------------------------


     EDDAV:  cpu time    7.1039: real time    7.1141
       DOS:  cpu time    0.0060: real time    0.0059
    CHARGE:  cpu time    0.5469: real time    0.5467
    MIXING:  cpu time    0.0010: real time    0.0017
    --------------------------------------------
      LOOP:  cpu time    7.6588: real time    7.6806

 eigenvalue-minimisations  : 16396
 total energy-change (2. order) :-0.6467925E-03  (-0.6467393E-03)
 number of electron      42.0000000 magnetization       0.1665229
 augmentation part       17.2303169 magnetization       0.2838727

 Broyden mixing:
  rms(total) = 0.28662E+01    rms(broyden)= 0.28660E+01
  rms(prec ) = 0.43353E+01
  weight for this iteration     100.00

 Free energy of the ion-electron system (eV)
  ---------------------------------------------------
  alpha Z        PSCENC =       320.20819035
  Ewald energy   TEWEN  =     -4241.76706804
  -Hartree energ DENC   =     -1360.67770205
  -exchange      EXHF   =         0.00000000
  -V(xc)+E(xc)   XCENC  =       158.01032615
  PAW double counting   =      4526.91047494    -4582.83274487
  entropy T*S    EENTRO =        -0.00122331
  eigenvalues    EBANDS =      -397.00798297
  atomic energy  EATOM  =      5542.32138669
  Solvation  Ediel_sol  =         0.00000000
  ---------------------------------------------------
  free energy    TOTEN  =       -34.83634311 eV

  energy without entropy =      -34.83511980  energy(sigma->0) =      -34.83573146


--------------------------------------------------------------------------------------------------------




----------------------------------------- Iteration    1(   7)  ---------------------------------------


    POTLOK:  cpu time    0.0770: real time    0.0776
    SETDIJ:  cpu time    0.1650: real time    0.1657
    EDDIAG:  cpu time    1.2158: real time    1.2166
  RMM-DIIS:  cpu time    5.4162: real time    5.4281
    ORTHCH:  cpu time    0.0600: real time    0.0601
       DOS:  cpu time    0.0060: real time    0.0062
    CHARGE:  cpu time    0.5439: real time    0.5452
    MIXING:  cpu time    0.0020: real time    0.0016
    --------------------------------------------
      LOOP:  cpu time    7.4869: real time    7.5045

 eigenvalue-minimisations  : 13630
 total energy-change (2. order) : 0.2312775E+01  (-0.2755083E+01)
 number of electron      42.0000000 magnetization       0.0315796
 augmentation part       18.8510115 magnetization       0.1310587

 Broyden mixing:
  rms(total) = 0.72093E+00    rms(broyden)= 0.72086E+00
  rms(prec ) = 0.13184E+01
  weight for this iteration     100.00

 eigenvalues of (default mixing * dielectric matrix)
  average eigenvalue GAMMA=   0.8677
  0.8677

 Free energy of the ion-electron system (eV)
  ---------------------------------------------------
  alpha Z        PSCENC =       320.20819035
  Ewald energy   TEWEN  =     -4241.76706804
  -Hartree energ DENC   =     -1271.07652891
  -exchange      EXHF   =         0.00000000
  -V(xc)+E(xc)   XCENC  =       153.40166030
  PAW double counting   =      4974.83603883    -5031.96282682
  entropy T*S    EENTRO =        -0.00160337
  eigenvalues    EBANDS =      -478.48281697
  atomic energy  EATOM  =      5542.32138669
  Solvation  Ediel_sol  =         0.00000000
  ---------------------------------------------------
  free energy    TOTEN  =       -32.52356795 eV

  energy without entropy =      -32.52196458  energy(sigma->0) =      -32.52276627


--------------------------------------------------------------------------------------------------------




----------------------------------------- Iteration    1(   8)  ---------------------------------------


    POTLOK:  cpu time    0.0600: real time    0.0603
    SETDIJ:  cpu time    0.1660: real time    0.1660
    EDDIAG:  cpu time    1.2148: real time    1.2181
  RMM-DIIS:  cpu time    6.9209: real time    6.9352
    ORTHCH:  cpu time    0.0600: real time    0.0602
       DOS:  cpu time    0.0050: real time    0.0064
    CHARGE:  cpu time    0.5429: real time    0.5427
    MIXING:  cpu time    0.0020: real time    0.0018
    --------------------------------------------
      LOOP:  cpu time    8.9736: real time    8.9946

 eigenvalue-minimisations  : 14905
 total energy-change (2. order) :-0.7776741E+00  (-0.3732910E+00)
 number of electron      42.0000000 magnetization      -0.0009386
 augmentation part       18.4389612 magnetization       0.0999545

 Broyden mixing:
  rms(total) = 0.13704E+01    rms(broyden)= 0.13704E+01
  rms(prec ) = 0.42045E+01
  weight for this iteration     100.00

 eigenvalues of (default mixing * dielectric matrix)
  average eigenvalue GAMMA=   0.6566
  0.9396  0.3736

 Free energy of the ion-electron system (eV)
  ---------------------------------------------------
  alpha Z        PSCENC =       320.20819035
  Ewald energy   TEWEN  =     -4241.76706804
  -Hartree energ DENC   =     -1285.60388659
  -exchange      EXHF   =         0.00000000
  -V(xc)+E(xc)   XCENC  =       153.95461454
  PAW double counting   =      5170.93626495    -5231.17065026
  entropy T*S    EENTRO =        -0.00725375
  eigenvalues    EBANDS =      -462.17283990
  atomic energy  EATOM  =      5542.32138669
  Solvation  Ediel_sol  =         0.00000000
  ---------------------------------------------------
  free energy    TOTEN  =       -33.30124201 eV

  energy without entropy =      -33.29398826  energy(sigma->0) =      -33.29761513


--------------------------------------------------------------------------------------------------------




----------------------------------------- Iteration    1(   9)  ---------------------------------------


    POTLOK:  cpu time    0.2160: real time    0.2159
    SETDIJ:  cpu time    0.1660: real time    0.1662
    EDDIAG:  cpu time    1.2158: real time    1.2182
  RMM-DIIS:  cpu time    5.1732: real time    5.1827
    ORTHCH:  cpu time    0.0610: real time    0.0608
       DOS:  cpu time    0.0060: real time    0.0063
    CHARGE:  cpu time    0.5449: real time    0.5464
    MIXING:  cpu time    0.0010: real time    0.0017
    --------------------------------------------
      LOOP:  cpu time    7.3839: real time    7.4018

 eigenvalue-minimisations  : 14113
 total energy-change (2. order) : 0.8652896E+00  (-0.1445262E+00)
 number of electron      42.0000000 magnetization       0.0113941
 augmentation part       18.6500641 magnetization       0.0712041

 Broyden mixing:
  rms(total) = 0.42223E+00    rms(broyden)= 0.42209E+00
  rms(prec ) = 0.66224E+00
  weight for this iteration     100.00

 eigenvalues of (default mixing * dielectric matrix)
  average eigenvalue GAMMA=   0.6326
  1.1918  0.5484  0.1576

 Free energy of the ion-electron system (eV)
  ---------------------------------------------------
  alpha Z        PSCENC =       320.20819035
  Ewald energy   TEWEN  =     -4241.76706804
  -Hartree energ DENC   =     -1282.37533921
  -exchange      EXHF   =         0.00000000
  -V(xc)+E(xc)   XCENC  =       153.81911521
  PAW double counting   =      5189.47995180    -5249.13413836
  entropy T*S    EENTRO =        -0.00153617
  eigenvalues    EBANDS =      -464.98651469
  atomic energy  EATOM  =      5542.32138669
  Solvation  Ediel_sol  =         0.00000000
  ---------------------------------------------------
  free energy    TOTEN  =       -32.43595242 eV

  energy without entropy =      -32.43441625  energy(sigma->0) =      -32.43518433


--------------------------------------------------------------------------------------------------------




----------------------------------------- Iteration    1(  10)  ---------------------------------------


    POTLOK:  cpu time    0.0600: real time    0.0605
    SETDIJ:  cpu time    0.1650: real time    0.1659
    EDDIAG:  cpu time    1.2228: real time    1.2251
  RMM-DIIS:  cpu time    5.9981: real time    6.0100
    ORTHCH:  cpu time    0.0600: real time    0.0608
       DOS:  cpu time    0.0070: real time    0.0062
    CHARGE:  cpu time    0.5429: real time    0.5455
    MIXING:  cpu time    0.0030: real time    0.0023
    --------------------------------------------
      LOOP:  cpu time    8.0608: real time    8.0801

 eigenvalue-minimisations  : 17157
 total energy-change (2. order) : 0.4669066E-02  (-0.2587843E-01)
 number of electron      42.0000000 magnetization       0.0271380
 augmentation part       18.5594945 magnetization       0.0634966

 Broyden mixing:
  rms(total) = 0.24541E+00    rms(broyden)= 0.24540E+00
  rms(prec ) = 0.33946E+00
  weight for this iteration     100.00

 eigenvalues of (default mixing * dielectric matrix)
  average eigenvalue GAMMA=   0.8513
  1.8868  0.1571  0.6806  0.6806

 Free energy of the ion-electron system (eV)
  ---------------------------------------------------
  alpha Z        PSCENC =       320.20819035
  Ewald energy   TEWEN  =     -4241.76706804
  -Hartree energ DENC   =     -1284.15033323
  -exchange      EXHF   =         0.00000000
  -V(xc)+E(xc)   XCENC  =       153.85630186
  PAW double counting   =      5325.36335350    -5386.09280669
  entropy T*S    EENTRO =        -0.00184478
  eigenvalues    EBANDS =      -462.16846300
  atomic energy  EATOM  =      5542.32138669
  Solvation  Ediel_sol  =         0.00000000
  ---------------------------------------------------
  free energy    TOTEN  =       -32.43128335 eV

  energy without entropy =      -32.42943857  energy(sigma->0) =      -32.43036096


--------------------------------------------------------------------------------------------------------




----------------------------------------- Iteration    1(  11)  ---------------------------------------


    POTLOK:  cpu time    0.0590: real time    0.0606
    SETDIJ:  cpu time    0.1680: real time    0.1671
    EDDIAG:  cpu time    1.2228: real time    1.2254
  RMM-DIIS:  cpu time    5.9821: real time    5.9945
    ORTHCH:  cpu time    0.0600: real time    0.0608
       DOS:  cpu time    0.0060: real time    0.0058
    CHARGE:  cpu time    0.5439: real time    0.5460
    MIXING:  cpu time    0.0020: real time    0.0018
    --------------------------------------------
      LOOP:  cpu time    8.0458: real time    8.0655

 eigenvalue-minimisations  : 16346
 total energy-change (2. order) :-0.2540966E-01  (-0.1378138E-01)
 number of electron      42.0000000 magnetization       0.0237095
 augmentation part       18.5750239 magnetization       0.0412555

 Broyden mixing:
  rms(total) = 0.14368E+00    rms(broyden)= 0.14367E+00
  rms(prec ) = 0.42325E+00
  weight for this iteration     100.00

 eigenvalues of (default mixing * dielectric matrix)
  average eigenvalue GAMMA=   0.8780
  2.1137  0.1565  0.7696  0.7696  0.5806

 Free energy of the ion-electron system (eV)
  ---------------------------------------------------
  alpha Z        PSCENC =       320.20819035
  Ewald energy   TEWEN  =     -4241.76706804
  -Hartree energ DENC   =     -1281.97223143
  -exchange      EXHF   =         0.00000000
  -V(xc)+E(xc)   XCENC  =       153.77441334
  PAW double counting   =      5457.47323370    -5518.87578383
  entropy T*S    EENTRO =        -0.00162461
  eigenvalues    EBANDS =      -463.61720918
  atomic energy  EATOM  =      5542.32138669
  Solvation  Ediel_sol  =         0.00000000
  ---------------------------------------------------
  free energy    TOTEN  =       -32.45669302 eV

  energy without entropy =      -32.45506841  energy(sigma->0) =      -32.45588071


--------------------------------------------------------------------------------------------------------




----------------------------------------- Iteration    1(  12)  ---------------------------------------


    POTLOK:  cpu time    0.0600: real time    0.0605
    SETDIJ:  cpu time    0.1670: real time    0.1670
    EDDIAG:  cpu time    1.2578: real time    1.2596
  RMM-DIIS:  cpu time    5.3642: real time    5.3756
    ORTHCH:  cpu time    0.0600: real time    0.0602
       DOS:  cpu time    0.0060: real time    0.0063
    CHARGE:  cpu time    0.5449: real time    0.5462
    MIXING:  cpu time    0.0020: real time    0.0019
    --------------------------------------------
      LOOP:  cpu time    7.4639: real time    7.4811

[...]
      3     -37.6032      1.00000
      4     -37.5467      1.00000
      5     -37.5174      1.00000
      6     -37.5117      1.00000
      7     -28.3227      1.00000
      8     -28.3126      1.00000
      9     -28.3075      1.00000
     10      -2.2965      1.00000
     11       3.4026      1.00000
     12       4.3836      1.00000
     13       5.2069      1.00000
     14       6.8967      1.00000
     15       7.4774      1.00000
     16       7.8485      1.00000
     17       8.2691      1.00000
     18       8.6264      1.00000
     19       9.1171      1.00000
     20       9.2973      1.00000
     21       9.8728      1.00000
     22      10.5376      0.00000
     23      10.9008      0.00000
     24      10.9990      0.00000
     25      11.1616      0.00000
     26      11.2934      0.00000
     27      11.4437      0.00000
     28      12.0285      0.00000

 k-point   117 :      -0.4000    0.4000    0.2000
  band No.  band energies     occupation 
      1     -37.6337      1.00000
      2     -37.6219      1.00000
      3     -37.5909      1.00000
      4     -37.5586      1.00000
      5     -37.5226      1.00000
      6     -37.5164      1.00000
      7     -28.3204      1.00000
      8     -28.3142      1.00000
      9     -28.3080      1.00000
     10      -2.3636      1.00000
     11       3.3896      1.00000
     12       4.3153      1.00000
     13       5.0843      1.00000
     14       7.0587      1.00000
     15       7.6214      1.00000
     16       7.9346      1.00000
     17       8.2102      1.00000
     18       8.7491      1.00000
     19       9.0804      1.00000
     20       9.0819      1.00000
     21       9.7625      1.00000
     22      10.6369      0.00000
     23      11.1142      0.00000
     24      11.1434      0.00000
     25      11.2605      0.00000
     26      11.3330      0.00000
     27      11.5882      0.00000
     28      12.1711      0.00000

 k-point   118 :      -0.3333    0.4000    0.2000
  band No.  band energies     occupation 
      1     -37.6357      1.00000
      2     -37.6251      1.00000
      3     -37.5804      1.00000
      4     -37.5694      1.00000
      5     -37.5182      1.00000
      6     -37.5160      1.00000
      7     -28.3187      1.00000
      8     -28.3163      1.00000
      9     -28.3077      1.00000
     10      -2.3089      1.00000
     11       3.6048      1.00000
     12       4.0135      1.00000
     13       5.0625      1.00000
     14       7.0014      1.00000
     15       7.7441      1.00000
     16       7.8824      1.00000
     17       8.3073      1.00000
     18       8.8376      1.00000
     19       8.9476      1.00000
     20       9.1292      1.00000
     21       9.7015      1.00000
     22      10.7285      0.00000
     23      10.9731      0.00000
     24      11.0048      0.00000
     25      11.2405      0.00000
     26      11.3298      0.00000
     27      11.4774      0.00000
     28      12.1382      0.00000

 k-point   119 :      -0.3333    0.4667    0.2000
  band No.  band energies     occupation 
      1     -37.6382      1.00000
      2     -37.6277      1.00000
      3     -37.5923      1.00000
      4     -37.5578      1.00000
      5     -37.5156      1.00000
      6     -37.5135      1.00000
      7     -28.3208      1.00000
      8     -28.3145      1.00000
      9     -28.3075      1.00000
     10      -2.2934      1.00000
     11       3.5273      1.00000
     12       4.2085      1.00000
     13       5.0813      1.00000
     14       6.9623      1.00000
     15       7.6142      1.00000
     16       7.8558      1.00000
     17       8.2713      1.00000
     18       8.7242      1.00000
     19       9.0152      1.00000
     20       9.2439      1.00000
     21       9.8198      1.00000
     22      10.6646      0.00000
     23      10.9178      0.00000
     24      11.0081      0.00000
     25      11.0727      0.00000
     26      11.3004      0.00000
     27      11.4195      0.00000
     28      12.1034      0.00000

 k-point   120 :      -0.2667    0.4667    0.2000
  band No.  band energies     occupation 
      1     -37.6385      1.00000
      2     -37.6275      1.00000
      3     -37.5810      1.00000
      4     -37.5690      1.00000
      5     -37.5156      1.00000
      6     -37.5135      1.00000
      7     -28.3187      1.00000
      8     -28.3167      1.00000
      9     -28.3075      1.00000
     10      -2.2835      1.00000
     11       3.7580      1.00000
     12       3.9147      1.00000
     13       5.0393      1.00000
     14       6.9640      1.00000
     15       7.7673      1.00000
     16       7.8049      1.00000
     17       8.3077      1.00000
     18       8.8252      1.00000
     19       8.9078      1.00000
     20       9.2265      1.00000
     21       9.7533      1.00000
     22      10.7720      0.00000
     23      10.9297      0.00000
     24      10.9700      0.00000
     25      10.9933      0.00000
     26      11.3683      0.00000
     27      11.3705      0.00000
     28      12.1215      0.00000


--------------------------------------------------------------------------------------------------------


 soft charge-density along one line, spin component           1
         0         1         2         3         4         5         6         7         8         9
 total charge-density along one line
 
 soft charge-density along one line, spin component           2
         0         1         2         3         4         5         6         7         8         9
 total charge-density along one line
 
 pseudopotential strength for first ion, spin component:           1
-39.781   0.000   0.000   6.667  -0.000  -0.000  -0.000  -0.000
  0.000 -39.781   0.000  -0.000   6.667  -0.000  -0.022  -0.000
  0.000   0.000 -39.781  -0.000  -0.000   6.667  -0.000  -0.022
  6.667  -0.000  -0.000   5.485   0.000   0.000   0.000   0.000
 -0.000   6.667  -0.000   0.000   5.485   0.000   0.006   0.000
 -0.000  -0.000   6.667   0.000   0.000   5.485   0.000   0.006
 -0.000  -0.022  -0.000   0.000   0.006   0.000  -0.681   0.000
 -0.000  -0.000  -0.022   0.000   0.000   0.006   0.000  -0.681
 -0.000   0.000  -0.000   0.000  -0.000   0.000  -0.000   0.000
 -0.022  -0.000  -0.000   0.006   0.000   0.000   0.000   0.000
 -0.000  -0.000   0.000   0.000   0.000  -0.000   0.000  -0.000
 -0.000  -0.022  -0.000   0.000   0.006   0.000  -1.203   0.000
 -0.000  -0.000  -0.022   0.000   0.000   0.006   0.000  -1.203
 -0.000   0.000  -0.000   0.000  -0.000   0.000  -0.000   0.000
 -0.022  -0.000  -0.000   0.006   0.000   0.000   0.000   0.000
 -0.000  -0.000   0.000   0.000   0.000  -0.000   0.000  -0.000
  0.000   0.000   0.000   0.000   0.000   0.000  -0.000  -0.000
  0.000   0.000   0.000   0.000   0.000   0.000  -0.000  -0.000
 pseudopotential strength for first ion, spin component:           2
-39.780   0.000   0.000   6.667  -0.000  -0.000  -0.000  -0.000
  0.000 -39.780   0.000  -0.000   6.667  -0.000  -0.022  -0.000
  0.000   0.000 -39.780  -0.000  -0.000   6.667  -0.000  -0.022
  6.667  -0.000  -0.000   5.485   0.000   0.000   0.000   0.000
 -0.000   6.667  -0.000   0.000   5.485   0.000   0.006   0.000
 -0.000  -0.000   6.667   0.000   0.000   5.485   0.000   0.006
 -0.000  -0.022  -0.000   0.000   0.006   0.000  -0.680   0.000
 -0.000  -0.000  -0.022   0.000   0.000   0.006   0.000  -0.680
 -0.000   0.000  -0.000   0.000  -0.000   0.000  -0.000   0.000
 -0.022  -0.000  -0.000   0.006   0.000   0.000   0.000   0.000
 -0.000  -0.000   0.000   0.000   0.000  -0.000   0.000  -0.000
 -0.000  -0.022  -0.000   0.000   0.006   0.000  -1.203   0.000
 -0.000  -0.000  -0.022   0.000   0.000   0.006   0.000  -1.203
 -0.000   0.000  -0.000   0.000  -0.000   0.000  -0.000   0.000
 -0.022  -0.000  -0.000   0.006   0.000   0.000   0.000   0.000
 -0.000  -0.000   0.000   0.000   0.000  -0.000   0.000  -0.000
  0.000   0.000   0.000   0.000   0.000   0.000  -0.000  -0.000
  0.000   0.000   0.000   0.000   0.000   0.000  -0.000  -0.000
 total augmentation occupancy for first ion, spin component:           1
  1.993   0.000   0.000  -0.025   0.000   0.000   0.000   0.000   0.000  -0.004   0.000   0.000   0.000   0.000   0.004   0.000
  0.000   1.993   0.000   0.000  -0.025  -0.000  -0.004   0.000   0.000   0.000  -0.000   0.004  -0.000  -0.000  -0.000   0.000
  0.000   0.000   1.993  -0.000   0.000  -0.025   0.000  -0.004  -0.000   0.000   0.000   0.000   0.004  -0.000  -0.000   0.000
 -0.025   0.000   0.000   0.196   0.000  -0.000  -0.000  -0.000   0.000   0.176   0.000  -0.000  -0.000   0.000  -0.092   0.000
 -0.000  -0.025   0.000   0.000   0.196  -0.000   0.176  -0.000  -0.000   0.000  -0.000  -0.092  -0.000  -0.000   0.000  -0.000
  0.000   0.000  -0.025   0.000  -0.000   0.196   0.000   0.176  -0.000  -0.000   0.000  -0.000  -0.092  -0.000   0.000  -0.000
  0.000  -0.004   0.000   0.000   0.176  -0.000   1.864   0.000   0.000  -0.000   0.000  -1.471   0.000  -0.000   0.000  -0.000
  0.000   0.000  -0.004   0.000   0.000   0.176   0.000   1.864  -0.000   0.000  -0.000   0.000  -1.471   0.000  -0.000   0.000
 -0.000  -0.000   0.000   0.000  -0.000   0.000   0.000   0.000   0.811   0.000   0.000  -0.000   0.000  -0.999   0.000   0.000
 -0.004   0.000  -0.000   0.176   0.000   0.000  -0.000   0.000  -0.000   1.864   0.000   0.000  -0.000   0.000  -1.471   0.000
  0.000  -0.000   0.000  -0.000   0.000  -0.000  -0.000   0.000   0.000  -0.000   0.811   0.000   0.000   0.000   0.000  -0.999
  0.000   0.004  -0.000   0.000  -0.092  -0.000  -1.471   0.000   0.000   0.000  -0.000   2.441   0.000  -0.000  -0.000  -0.000
  0.000  -0.000   0.004   0.000   0.000  -0.092   0.000  -1.471  -0.000   0.000   0.000   0.000   2.441  -0.000   0.000  -0.000
 -0.000   0.000   0.000   0.000  -0.000  -0.000   0.000   0.000  -0.999   0.000   0.000   0.000   0.000   2.040  -0.000   0.000
  0.004   0.000   0.000  -0.092   0.000  -0.000   0.000  -0.000   0.000  -1.471  -0.000  -0.000   0.000   0.000   2.441   0.000
 -0.000   0.000  -0.000  -0.000   0.000  -0.000   0.000   0.000   0.000   0.000  -0.999  -0.000   0.000   0.000  -0.000   2.040
  0.000   0.000  -0.000   0.000   0.000   0.000   0.000  -0.000   0.000   0.000   0.000  -0.000   0.000   0.000   0.000   0.000
  0.000  -0.000   0.000  -0.000   0.000   0.000   0.000   0.000   0.000   0.000   0.000   0.000  -0.000   0.000   0.000  -0.000
 total augmentation occupancy for first ion, spin component:           2
 -0.000   0.000   0.000  -0.000   0.000   0.000  -0.000   0.000   0.000   0.000  -0.000   0.000   0.000  -0.000  -0.000   0.000
  0.000  -0.000   0.000   0.000  -0.000   0.000   0.000  -0.000  -0.000  -0.000   0.000  -0.000   0.000   0.000   0.000  -0.000
  0.000   0.000  -0.000   0.000   0.000  -0.000  -0.000   0.000  -0.000   0.000  -0.000   0.000  -0.000   0.000   0.000  -0.000
 -0.000   0.000   0.000   0.000   0.000   0.000  -0.000  -0.000   0.000   0.000   0.000   0.000   0.000  -0.000  -0.000  -0.000
  0.000  -0.000   0.000   0.000   0.000   0.000   0.000   0.000   0.000  -0.000  -0.000  -0.000  -0.000  -0.000   0.000   0.000
  0.000   0.000  -0.000   0.000   0.000   0.000   0.000   0.000   0.000   0.000   0.000  -0.000  -0.000   0.000  -0.000  -0.000
 -0.000   0.000  -0.000  -0.000   0.000   0.000   0.000   0.000   0.000   0.000  -0.000   0.000  -0.000   0.000   0.000   0.000
  0.000  -0.000   0.000  -0.000   0.000   0.000   0.000   0.000   0.000   0.000  -0.000   0.000   0.000   0.000   0.000  -0.000
  0.000   0.000   0.000   0.000   0.000  -0.000   0.000  -0.000  -0.000   0.000   0.000   0.000  -0.000   0.000  -0.000   0.000
  0.000  -0.000   0.000   0.000  -0.000   0.000   0.000   0.000  -0.000   0.000  -0.000   0.000   0.000  -0.000   0.000   0.000
 -0.000   0.000  -0.000   0.000  -0.000  -0.000   0.000   0.000   0.000   0.000  -0.000   0.000   0.000   0.000  -0.000   0.000
  0.000  -0.000   0.000   0.000  -0.000  -0.000   0.000   0.000   0.000   0.000   0.000  -0.000   0.000   0.000  -0.000   0.000
  0.000   0.000  -0.000   0.000  -0.000  -0.000  -0.000   0.000   0.000   0.000   0.000   0.000  -0.000   0.000   0.000  -0.000
 -0.000   0.000  -0.000   0.000   0.000  -0.000   0.000   0.000   0.000   0.000   0.000   0.000   0.000  -0.000  -0.000   0.000
 -0.000   0.000   0.000  -0.000   0.000  -0.000   0.000   0.000   0.000   0.000   0.000  -0.000   0.000  -0.000  -0.000   0.000
 -0.000   0.000   0.000  -0.000   0.000  -0.000   0.000   0.000   0.000   0.000   0.000  -0.000   0.000   0.000   0.000  -0.000
  0.000   0.000   0.000   0.000   0.000   0.000   0.000  -0.000   0.000  -0.000   0.000   0.000   0.000   0.000   0.000   0.000
  0.000   0.000   0.000   0.000   0.000   0.000   0.000  -0.000  -0.000  -0.000   0.000   0.000  -0.000   0.000  -0.000   0.000


------------------------ aborting loop because EDIFF is reached ----------------------------------------


 


 total charge     
 
# of ion     s       p       d       tot
----------------------------------------
  1        0.315   6.342   5.379  12.037
  2        0.315   6.342   5.379  12.037
  3        0.337   6.270   3.116   9.723
  4        1.134   1.530   0.171   2.835
------------------------------------------------
tot        2.101  20.485  14.046  36.632
 


 magnetization (x)
 
# of ion     s       p       d       tot
----------------------------------------
  1        0.000  -0.000   0.000   0.000
  2       -0.000  -0.000   0.000   0.000
  3       -0.000  -0.000  -0.000  -0.000
  4        0.000  -0.000  -0.000  -0.000
------------------------------------------------
tot       -0.000  -0.000   0.000   0.000
 
    CHARGE:  cpu time    0.5459: real time    0.5470
    FORLOC:  cpu time    0.0030: real time    0.0032
    FORNL :  cpu time    1.7287: real time    1.7314
    STRESS:  cpu time    4.6083: real time    4.6132
    FORCOR:  cpu time    0.0610: real time    0.0616
    FORHAR:  cpu time    0.0080: real time    0.0079
    MIXING:  cpu time    0.0030: real time    0.0024
    OFIELD:  cpu time    0.0000: real time    0.0000

  FORCE on cell =-STRESS in cart. coord.  units (eV):
  Direction    XX          YY          ZZ          XY          YZ          ZX
  --------------------------------------------------------------------------------------
  Alpha Z   320.20819   320.20819   320.20819
  Ewald   -1413.92351 -1413.92351 -1413.92351    -0.00000    -0.00000    -0.00000
  Hartree   427.05720   427.05720   427.05720     0.00000     0.00000     0.00000
  E(xc)    -235.95881  -235.95881  -235.95881     0.00001     0.00001     0.00001
  Local     308.05500   308.05500   308.05500     0.00012     0.00012     0.00012
  n-local  -118.18195  -117.91400  -116.16842    -1.71069     1.76779    -1.95921
  augment   227.61077   227.61077   227.61077    -0.00010    -0.00010    -0.00010
  Kinetic   486.01455   484.10770   483.00122    -3.12290     2.66841    -1.55096
  Fock        0.00000     0.00000     0.00000     0.00000     0.00000     0.00000
  -------------------------------------------------------------------------------------
  Total       0.00189     0.00189     0.00189    -0.00000     0.00000    -0.00000
  in kB       0.06437     0.06437     0.06437    -0.00000     0.00000    -0.00000
  external pressure =        0.06 kB  Pullay stress =        0.00 kB


 VOLUME and BASIS-vectors are now :
 -----------------------------------------------------------------------------
  energy-cutoff  :      500.00
  volume of cell :       46.98
      direct lattice vectors                 reciprocal lattice vectors
     0.000000000  2.863892340  2.863892340    -0.174587568  0.174587568  0.174587568
     2.863892340  0.000000000  2.863892340     0.174587568 -0.174587568  0.174587568
     2.863892340  2.863892340  0.000000000     0.174587568  0.174587568 -0.174587568

  length of vectors
     4.050155388  4.050155388  4.050155388     0.302394539  0.302394539  0.302394539


 FORCES acting on ions
    electron-ion (+dipol)            ewald-force                    non-local-force                 convergence-correction
 -----------------------------------------------------------------------------------------------
   -.252E-06 -.252E-06 -.276E-06   0.407E-13 0.206E-13 0.582E-13   0.347E-17 0.694E-17 0.347E-17   -.189E-08 -.189E-08 -.189E-08
   0.252E-06 0.252E-06 0.276E-06   -.354E-13 -.948E-14 -.458E-13   -.208E-16 -.243E-16 -.243E-16   0.221E-08 0.221E-08 0.221E-08
   0.644E-12 0.664E-12 0.514E-12   -.569E-14 -.765E-14 -.809E-14   0.159E-21 0.926E-22 0.119E-21   -.513E-09 -.513E-09 -.513E-09
   0.178E-11 0.365E-12 -.804E-12   0.674E-15 -.402E-14 -.831E-14   -.376E-22 -.112E-22 -.331E-23   -.483E-10 -.483E-10 -.483E-10
 -----------------------------------------------------------------------------------------------
   0.405E-11 -.227E-11 0.391E-12   0.284E-15 -.516E-15 -.399E-14   -.173E-16 -.173E-16 -.208E-16   -.244E-09 -.244E-09 -.244E-09
 
 
 POSITION                                       TOTAL-FORCE (eV/Angst)
 -----------------------------------------------------------------------------------
      4.29584      4.29584      4.29584        -0.000000     -0.000000     -0.000000
      1.43195      1.43195      1.43195        -0.000000      0.000000     -0.000000
      0.00000      0.00000      0.00000         0.000000      0.000000      0.000000
      2.86389      2.86389      2.86389         0.000000      0.000000      0.000000
 -----------------------------------------------------------------------------------
    total drift:                               -0.000000     -0.000000     -0.000000


--------------------------------------------------------------------------------------------------------



  FREE ENERGIE OF THE ION-ELECTRON SYSTEM (eV)
  ---------------------------------------------------
  free  energy   TOTEN  =       -32.44670761 eV

  energy  without entropy=      -32.44483229  energy(sigma->0) =      -32.44576995
 


--------------------------------------------------------------------------------------------------------


    POTLOK:  cpu time    0.2260: real time    0.2270


--------------------------------------------------------------------------------------------------------


     LOOP+:  cpu time  171.1470: real time  171.5857
    4ORBIT:  cpu time    0.0000: real time    0.0000
 


 total charge     
 
# of ion     s       p       d       tot
----------------------------------------
  1        0.315   6.342   5.379  12.037
  2        0.315   6.342   5.379  12.037
  3        0.337   6.270   3.116   9.723
  4        1.134   1.530   0.171   2.835
------------------------------------------------
tot        2.101  20.485  14.046  36.632
 


 magnetization (x)
 
# of ion     s       p       d       tot
----------------------------------------
  1        0.000  -0.000   0.000   0.000
  2       -0.000  -0.000   0.000   0.000
  3       -0.000  -0.000  -0.000  -0.000
  4        0.000  -0.000  -0.000  -0.000
------------------------------------------------
tot       -0.000  -0.000   0.000   0.000
 

 total amount of memory used by VASP on root node   145146. kBytes
========================================================================

   base      :      30000. kBytes
   nonl-proj :      64568. kBytes
   fftplans  :       8118. kBytes
   grid      :       7070. kBytes
   one-center:        124. kBytes
   wavefun   :      35266. kBytes
 
  
  
 General timing and accounting informations for this job:
 ========================================================
  
                  Total CPU time used (sec):      173.426
                            User time (sec):      170.806
                          System time (sec):        2.620
                         Elapsed time (sec):      174.257
  
                   Maximum memory used (kb):      280192.
                   Average memory used (kb):           0.
  
                          Minor page faults:       143296
                          Major page faults:       688761
                 Voluntary context switches:         1122
