 vasp.5.4.1 05Feb16 (build Aug 30 2019 09:58:18) complex                        
  
 executed on           IFC91_ompi date 2021.10.06  12:54:52
 running on    4 total cores
 distrk:  each k-point on    4 cores,    1 groups
 distr:  one band on NCORES_PER_BAND=   1 cores,    4 groups


--------------------------------------------------------------------------------------------------------


 INCAR:
 POTCAR:    PAW_PBE Mn_pv 02Aug2007               
 POTCAR:    PAW_PBE Mn_pv 02Aug2007               
 POTCAR:    PAW_PBE Ga 08Apr2002                  
 POTCAR:    PAW_PBE Mn_pv 02Aug2007               
   VRHFIN =Mn: 3p4s3d                                                           
   LEXCH  = PE                                                                  
   EATOM  =  2025.2664 eV,  148.8529 Ry                                         
                                                                                
   TITEL  = PAW_PBE Mn_pv 02Aug2007                                             
   LULTRA =        F    use ultrasoft PP ?                                      
   IUNSCR =        1    unscreen: 0-lin 1-nonlin 2-no                           
   RPACOR =    2.080    partial core radius                                     
   POMASS =   54.938; ZVAL   =   13.000    mass and valenz                      
   RCORE  =    2.300    outmost cutoff radius                                   
   RWIGS  =    2.500; RWIGS  =    1.323    wigner-seitz radius (au A)           
   ENMAX  =  269.864; ENMIN  =  202.398 eV                                      
   ICORE  =        3    local potential                                         
   LCOR   =        T    correct aug charges                                     
   LPAW   =        T    paw PP                                                  
   EAUG   =  569.085                                                            
   DEXC   =    0.000                                                            
   RMAX   =    2.343    core radius for proj-oper                               
   RAUG   =    1.300    factor for augmentation sphere                          
   RDEP   =    2.338    radius for radial grids                                 
   RDEPT  =    1.798    core radius for aug-charge                              
                                                                                
   Atomic configuration                                                         
    8 entries                                                                   
     n  l   j            E        occ.                                          
     1  0  0.50     -6424.8287   2.0000                                         
     2  0  0.50      -739.1154   2.0000                                         
     2  1  1.50      -625.3949   6.0000                                         
     3  0  0.50       -81.6100   2.0000                                         
     3  1  1.50       -50.4667   6.0000                                         
     3  2  2.50        -3.3745   6.0000                                         
     4  0  0.50        -4.1331   1.0000                                         
     4  3  2.50        -1.3606   0.0000                                         
   Description                                                                  
     l       E           TYP  RCUT    TYP  RCUT                                 
     1    -50.4666628     23  2.000                                             
     1     -1.3605826     23  2.000                                             
     2     -3.3744729     23  2.300                                             
     2     -4.7350555     23  2.300                                             
     0     -4.1331431     23  2.300                                             
     0      7.6656591     23  2.300                                             
     3      9.5240782     23  2.300                                             
  local pseudopotential read in
  partial core-charges read in
  partial kinetic energy density read in
  atomic valenz-charges read in
  non local Contribution for L=           1  read in
    real space projection operators read in
  non local Contribution for L=           1  read in
    real space projection operators read in
  non local Contribution for L=           2  read in
    real space projection operators read in
  non local Contribution for L=           2  read in
    real space projection operators read in
  non local Contribution for L=           0  read in
    real space projection operators read in
  non local Contribution for L=           0  read in
    real space projection operators read in
    PAW grid and wavefunctions read in
 
   number of l-projection  operators is LMAX  =           6
   number of lm-projection operators is LMMAX =          18
 
 POTCAR:    PAW_PBE Mn_pv 02Aug2007               
   VRHFIN =Mn: 3p4s3d                                                           
   LEXCH  = PE                                                                  
   EATOM  =  2025.2664 eV,  148.8529 Ry                                         
                                                                                
   TITEL  = PAW_PBE Mn_pv 02Aug2007                                             
   LULTRA =        F    use ultrasoft PP ?                                      
   IUNSCR =        1    unscreen: 0-lin 1-nonlin 2-no                           
   RPACOR =    2.080    partial core radius                                     
   POMASS =   54.938; ZVAL   =   13.000    mass and valenz                      
   RCORE  =    2.300    outmost cutoff radius                                   
   RWIGS  =    2.500; RWIGS  =    1.323    wigner-seitz radius (au A)           
   ENMAX  =  269.864; ENMIN  =  202.398 eV                                      
   ICORE  =        3    local potential                                         
   LCOR   =        T    correct aug charges                                     
   LPAW   =        T    paw PP                                                  
   EAUG   =  569.085                                                            
   DEXC   =    0.000                                                            
   RMAX   =    2.343    core radius for proj-oper                               
   RAUG   =    1.300    factor for augmentation sphere                          
   RDEP   =    2.338    radius for radial grids                                 
   RDEPT  =    1.798    core radius for aug-charge                              
                                                                                
   Atomic configuration                                                         
    8 entries                                                                   
     n  l   j            E        occ.                                          
     1  0  0.50     -6424.8287   2.0000                                         
     2  0  0.50      -739.1154   2.0000                                         
     2  1  1.50      -625.3949   6.0000                                         
     3  0  0.50       -81.6100   2.0000                                         
     3  1  1.50       -50.4667   6.0000                                         
     3  2  2.50        -3.3745   6.0000                                         
     4  0  0.50        -4.1331   1.0000                                         
     4  3  2.50        -1.3606   0.0000                                         
   Description                                                                  
     l       E           TYP  RCUT    TYP  RCUT                                 
     1    -50.4666628     23  2.000                                             
     1     -1.3605826     23  2.000                                             
     2     -3.3744729     23  2.300                                             
     2     -4.7350555     23  2.300                                             
     0     -4.1331431     23  2.300                                             
     0      7.6656591     23  2.300                                             
     3      9.5240782     23  2.300                                             
  local pseudopotential read in
  partial core-charges read in
  partial kinetic energy density read in
  atomic valenz-charges read in
  non local Contribution for L=           1  read in
    real space projection operators read in
  non local Contribution for L=           1  read in
    real space projection operators read in
  non local Contribution for L=           2  read in
    real space projection operators read in
  non local Contribution for L=           2  read in
    real space projection operators read in
  non local Contribution for L=           0  read in
    real space projection operators read in
  non local Contribution for L=           0  read in
    real space projection operators read in
    PAW grid and wavefunctions read in
 
   number of l-projection  operators is LMAX  =           6
   number of lm-projection operators is LMMAX =          18
 
 POTCAR:    PAW_PBE Ga 08Apr2002                  
   VRHFIN =Ga: s2p1                                                             
   LEXCH  = PE                                                                  
   EATOM  =    58.8688 eV,    4.3267 Ry                                         
                                                                                
   TITEL  = PAW_PBE Ga 08Apr2002                                                
   LULTRA =        F    use ultrasoft PP ?                                      
   IUNSCR =        1    unscreen: 0-lin 1-nonlin 2-no                           
   RPACOR =    2.170    partial core radius                                     
   POMASS =   69.723; ZVAL   =    3.000    mass and valenz                      
   RCORE  =    2.600    outmost cutoff radius                                   
   RWIGS  =    2.650; RWIGS  =    1.402    wigner-seitz radius (au A)           
   ENMAX  =  134.678; ENMIN  =  101.009 eV                                      
   ICORE  =        3    local potential                                         
   LCOR   =        T    correct aug charges                                     
   LPAW   =        T    paw PP                                                  
   EAUG   =  320.264                                                            
   DEXC   =    0.000                                                            
   RMAX   =    2.658    core radius for proj-oper                               
   RAUG   =    1.300    factor for augmentation sphere                          
   RDEP   =    2.684    radius for radial grids                                 
   RDEPT  =    2.308    core radius for aug-charge                              
                                                                                
   Atomic configuration                                                         
   10 entries                                                                   
     n  l   j            E        occ.                                          
     1  0  0.50    -10228.7830   2.0000                                         
     2  0  0.50     -1262.1604   2.0000                                         
     2  1  1.50     -1098.6333   6.0000                                         
     3  0  0.50      -148.1110   2.0000                                         
     3  1  1.50       -98.8436   6.0000                                         
     3  2  2.50       -19.1549  10.0000                                         
     4  0  0.50        -8.9483   2.0000                                         
     4  1  0.50        -2.5791   1.0000                                         
     4  2  1.50         5.4423   0.0000                                         
     4  3  2.50        -2.7416   0.0000                                         
   Description                                                                  
     l       E           TYP  RCUT    TYP  RCUT                                 
     0     -8.9483097     23  2.600                                             
     0     -5.8232215     23  2.600                                             
     1     -2.5790793     23  2.600                                             
     1      5.2230115     23  2.600                                             
     2      1.3605826     23  2.600                                             
     3     -1.3605826      7  2.600                                             
  local pseudopotential read in
  partial core-charges read in
  partial kinetic energy density read in
  atomic valenz-charges read in
  non local Contribution for L=           0  read in
    real space projection operators read in
  non local Contribution for L=           0  read in
    real space projection operators read in
  non local Contribution for L=           1  read in
    real space projection operators read in
  non local Contribution for L=           1  read in
    real space projection operators read in
  non local Contribution for L=           2  read in
    real space projection operators read in
    PAW grid and wavefunctions read in
 
   number of l-projection  operators is LMAX  =           5
   number of lm-projection operators is LMMAX =          13
 
  PAW_PBE Mn_pv 02Aug2007               :
 energy of atom  1       EATOM=-2025.2664
 kinetic energy error for atom=    0.0062 (will be added to EATOM!!)
  PAW_PBE Mn_pv 02Aug2007               :
 energy of atom  2       EATOM=-2025.2664
 kinetic energy error for atom=    0.0062 (will be added to EATOM!!)
  PAW_PBE Ga 08Apr2002                  :
 energy of atom  3       EATOM=  -58.8688
 kinetic energy error for atom=    0.0000 (will be added to EATOM!!)
 
 
 POSCAR: Mn Mn Ga                                
  positions in direct lattice
  velocities in cartesian coordinates
 exchange correlation table for  LEXCH =        8
   RHO(1)=    0.500       N(1)  =     2000
   RHO(2)=  100.500       N(2)  =     4000
 


--------------------------------------------------------------------------------------------------------


 ion  position               nearest neighbor table
   1  0.000  0.000  0.000-   3 2.52   3 2.52   3 2.52   2 2.52   3 2.52   2 2.52   2 2.52   2 2.52
                             4 2.91   4 2.91   4 2.91   4 2.91   4 2.91   4 2.91
   2  0.250  0.250  0.250-   1 2.52   1 2.52   1 2.52   1 2.52   4 2.52   4 2.52   4 2.52   4 2.52
                             3 2.91   3 2.91   3 2.91   3 2.91   3 2.91   3 2.91
   3  0.750  0.750  0.750-   4 2.52   4 2.52   4 2.52   1 2.52   4 2.52   1 2.52   1 2.52   1 2.52
                             2 2.91   2 2.91   2 2.91   2 2.91   2 2.91   2 2.91
   4  0.500  0.500  0.500-   2 2.52   2 2.52   2 2.52   2 2.52   3 2.52   3 2.52   3 2.52   3 2.52
                             1 2.91   1 2.91   1 2.91   1 2.91   1 2.91   1 2.91
 
  LATTYP: Found a face centered cubic cell.
 ALAT       =     5.8144233960
  
  Lattice vectors:
  
 A1 = (   0.0000000000,   2.9072116980,   2.9072116980)
 A2 = (   2.9072116980,   0.0000000000,   2.9072116980)
 A3 = (   2.9072116980,   2.9072116980,   0.0000000000)


Analysis of symmetry for initial positions (statically):
=====================================================================
 Subroutine PRICEL returns:
 Original cell was already a primitive cell.
 

 Routine SETGRP: Setting up the symmetry group for a 
 face centered cubic supercell.


 Subroutine GETGRP returns: Found 24 space group operations
 (whereof 24 operations were pure point group operations)
 out of a pool of 48 trial point group operations.


The static configuration has the point symmetry T_d .


Analysis of symmetry for dynamics (positions and initial velocities):
=====================================================================
 Subroutine PRICEL returns:
 Original cell was already a primitive cell.
 

 Routine SETGRP: Setting up the symmetry group for a 
 face centered cubic supercell.


 Subroutine GETGRP returns: Found 24 space group operations
 (whereof 24 operations were pure point group operations)
 out of a pool of 48 trial point group operations.


The dynamic configuration has the point symmetry T_d .


Analysis of structural, dynamic, and magnetic symmetry:
=====================================================================
 Subroutine PRICEL returns:
 Original cell was already a primitive cell.
 

 Routine SETGRP: Setting up the symmetry group for a 
 face centered cubic supercell.


 Subroutine GETGRP returns: Found 24 space group operations
 (whereof 24 operations were pure point group operations)
 out of a pool of 48 trial point group operations.


The magnetic configuration has the point symmetry T_d .


 Subroutine INISYM returns: Found 24 space group operations
 (whereof 24 operations are pure point group operations),
 and found     1 'primitive' translations

 
 
 KPOINTS: Automatic Mesh # Generates Automatically

Automatic generation of k-mesh.
Space group operators:
 irot       det(A)        alpha          n_x          n_y          n_z        tau_x        tau_y        tau_z
    1     1.000000     0.000000     1.000000     0.000000     0.000000     0.000000     0.000000     0.000000
    2     1.000000   120.000000    -0.577350    -0.577350    -0.577350     0.000000     0.000000     0.000000
    3     1.000000   120.000000     0.577350     0.577350     0.577350     0.000000     0.000000     0.000000
    4    -1.000000    90.000000     0.000000     0.000000    -1.000000     0.000000     0.000000     0.000000
    5    -1.000000   180.000000     0.000000     0.707107     0.707107     0.000000     0.000000     0.000000
    6    -1.000000    90.000000     0.000000     1.000000     0.000000     0.000000     0.000000     0.000000
    7     1.000000   180.000000     0.000000     0.000000     1.000000     0.000000     0.000000     0.000000
    8     1.000000   120.000000    -0.577350     0.577350     0.577350     0.000000     0.000000     0.000000
    9     1.000000   120.000000    -0.577350     0.577350    -0.577350     0.000000     0.000000     0.000000
   10    -1.000000    90.000000     0.000000     0.000000     1.000000     0.000000     0.000000     0.000000
   11    -1.000000    90.000000    -1.000000     0.000000     0.000000     0.000000     0.000000     0.000000
   12    -1.000000   180.000000     0.707107     0.000000     0.707107     0.000000     0.000000     0.000000
   13     1.000000   120.000000     0.577350    -0.577350     0.577350     0.000000     0.000000     0.000000
   14     1.000000   120.000000    -0.577350    -0.577350     0.577350     0.000000     0.000000     0.000000
   15     1.000000   180.000000     1.000000     0.000000     0.000000     0.000000     0.000000     0.000000
   16    -1.000000    90.000000     0.000000    -1.000000     0.000000     0.000000     0.000000     0.000000
   17    -1.000000   180.000000     0.707107     0.707107     0.000000     0.000000     0.000000     0.000000
   18    -1.000000    90.000000     1.000000     0.000000     0.000000     0.000000     0.000000     0.000000
   19     1.000000   120.000000     0.577350    -0.577350    -0.577350     0.000000     0.000000     0.000000
   20     1.000000   180.000000     0.000000     1.000000     0.000000     0.000000     0.000000     0.000000
   21     1.000000   120.000000     0.577350     0.577350    -0.577350     0.000000     0.000000     0.000000
   22    -1.000000   180.000000     0.000000    -0.707107     0.707107     0.000000     0.000000     0.000000
   23    -1.000000   180.000000     0.707107    -0.707107     0.000000     0.000000     0.000000     0.000000
   24    -1.000000   180.000000     0.707107     0.000000    -0.707107     0.000000     0.000000     0.000000
 
 Subroutine IBZKPT returns following result:
 ===========================================
 
 Found    120 irreducible k-points:
 
 Following reciprocal coordinates:
            Coordinates               Weight
  0.000000  0.000000  0.000000      1.000000
  0.066667  0.000000  0.000000      8.000000
  0.133333  0.000000  0.000000      8.000000
  0.200000  0.000000  0.000000      8.000000
  0.266667  0.000000  0.000000      8.000000
  0.333333  0.000000  0.000000      8.000000
  0.400000  0.000000  0.000000      8.000000
  0.466667  0.000000  0.000000      8.000000
  0.066667  0.066667  0.000000      6.000000
  0.133333  0.066667  0.000000     24.000000
  0.200000  0.066667  0.000000     24.000000
  0.266667  0.066667  0.000000     24.000000
  0.333333  0.066667  0.000000     24.000000
  0.400000  0.066667  0.000000     24.000000
  0.466667  0.066667  0.000000     24.000000
 -0.466667  0.066667  0.000000     24.000000
 -0.400000  0.066667  0.000000     24.000000
 -0.333333  0.066667  0.000000     24.000000
 -0.266667  0.066667  0.000000     24.000000
 -0.200000  0.066667  0.000000     24.000000
 -0.133333  0.066667  0.000000     24.000000
 -0.066667  0.066667  0.000000     12.000000
  0.133333  0.133333  0.000000      6.000000
  0.200000  0.133333  0.000000     24.000000
  0.266667  0.133333  0.000000     24.000000
  0.333333  0.133333  0.000000     24.000000
  0.400000  0.133333  0.000000     24.000000
  0.466667  0.133333  0.000000     24.000000
 -0.466667  0.133333  0.000000     24.000000
 -0.400000  0.133333  0.000000     24.000000
 -0.333333  0.133333  0.000000     24.000000
 -0.266667  0.133333  0.000000     24.000000
 -0.200000  0.133333  0.000000     24.000000
 -0.133333  0.133333  0.000000     12.000000
  0.200000  0.200000  0.000000      6.000000
  0.266667  0.200000  0.000000     24.000000
  0.333333  0.200000  0.000000     24.000000
  0.400000  0.200000  0.000000     24.000000
  0.466667  0.200000  0.000000     24.000000
 -0.466667  0.200000  0.000000     24.000000
 -0.400000  0.200000  0.000000     24.000000
 -0.333333  0.200000  0.000000     24.000000
 -0.266667  0.200000  0.000000     24.000000
 -0.200000  0.200000  0.000000     12.000000
  0.266667  0.266667  0.000000      6.000000
  0.333333  0.266667  0.000000     24.000000
  0.400000  0.266667  0.000000     24.000000
  0.466667  0.266667  0.000000     24.000000
 -0.466667  0.266667  0.000000     24.000000
 -0.400000  0.266667  0.000000     24.000000
 -0.333333  0.266667  0.000000     24.000000
 -0.266667  0.266667  0.000000     12.000000
  0.333333  0.333333  0.000000      6.000000
  0.400000  0.333333  0.000000     24.000000
  0.466667  0.333333  0.000000     24.000000
 -0.466667  0.333333  0.000000     24.000000
 -0.400000  0.333333  0.000000     24.000000
 -0.333333  0.333333  0.000000     12.000000
  0.400000  0.400000  0.000000      6.000000
  0.466667  0.400000  0.000000     24.000000
 -0.466667  0.400000  0.000000     24.000000
 -0.400000  0.400000  0.000000     12.000000
  0.466667  0.466667  0.000000      6.000000
 -0.466667  0.466667  0.000000     12.000000
  0.200000  0.133333  0.066667     24.000000
  0.266667  0.133333  0.066667     48.000000
  0.333333  0.133333  0.066667     48.000000
  0.400000  0.133333  0.066667     48.000000
  0.466667  0.133333  0.066667     48.000000
 -0.466667  0.133333  0.066667     48.000000
  0.266667  0.200000  0.066667     24.000000
  0.333333  0.200000  0.066667     48.000000
  0.400000  0.200000  0.066667     48.000000
  0.466667  0.200000  0.066667     48.000000
 -0.466667  0.200000  0.066667     48.000000
 -0.400000  0.200000  0.066667     48.000000
 -0.333333  0.200000  0.066667     48.000000
 -0.266667  0.200000  0.066667     48.000000
 -0.200000  0.200000  0.066667     48.000000
 -0.133333  0.200000  0.066667     24.000000
  0.333333  0.266667  0.066667     24.000000
  0.400000  0.266667  0.066667     48.000000
  0.466667  0.266667  0.066667     48.000000
 -0.466667  0.266667  0.066667     48.000000
 -0.400000  0.266667  0.066667     48.000000
 -0.333333  0.266667  0.066667     48.000000
 -0.266667  0.266667  0.066667     48.000000
 -0.200000  0.266667  0.066667     24.000000
  0.400000  0.333333  0.066667     24.000000
  0.466667  0.333333  0.066667     48.000000
 -0.466667  0.333333  0.066667     48.000000
 -0.400000  0.333333  0.066667     48.000000
 -0.333333  0.333333  0.066667     48.000000
 -0.266667  0.333333  0.066667     24.000000
  0.466667  0.400000  0.066667     24.000000
 -0.466667  0.400000  0.066667     48.000000
 -0.400000  0.400000  0.066667     48.000000
 -0.333333  0.400000  0.066667     24.000000
 -0.466667  0.466667  0.066667     24.000000
 -0.400000  0.466667  0.066667     24.000000
  0.400000  0.266667  0.133333     24.000000
  0.466667  0.266667  0.133333     48.000000
 -0.466667  0.266667  0.133333     48.000000
 -0.400000  0.266667  0.133333     48.000000
  0.466667  0.333333  0.133333     24.000000
 -0.466667  0.333333  0.133333     48.000000
 -0.400000  0.333333  0.133333     48.000000
 -0.333333  0.333333  0.133333     48.000000
 -0.266667  0.333333  0.133333     48.000000
 -0.200000  0.333333  0.133333     24.000000
 -0.466667  0.400000  0.133333     24.000000
 -0.400000  0.400000  0.133333     48.000000
 -0.333333  0.400000  0.133333     48.000000
 -0.266667  0.400000  0.133333     24.000000
 -0.400000  0.466667  0.133333     24.000000
 -0.333333  0.466667  0.133333     24.000000
 -0.400000  0.400000  0.200000     24.000000
 -0.333333  0.400000  0.200000     48.000000
 -0.333333  0.466667  0.200000     24.000000
 -0.266667  0.466667  0.200000     24.000000
 
 Following cartesian coordinates:
            Coordinates               Weight
  0.000000  0.000000  0.000000      1.000000
 -0.063062  0.063062  0.063062      8.000000
 -0.126123  0.126123  0.126123      8.000000
 -0.189185  0.189185  0.189185      8.000000
 -0.252246  0.252246  0.252246      8.000000
 -0.315308  0.315308  0.315308      8.000000
 -0.378369  0.378369  0.378369      8.000000
 -0.441431  0.441431  0.441431      8.000000
  0.000000  0.000000  0.126123      6.000000
 -0.063062  0.063062  0.189185     24.000000
 -0.126123  0.126123  0.252246     24.000000
 -0.189185  0.189185  0.315308     24.000000
 -0.252246  0.252246  0.378369     24.000000
 -0.315308  0.315308  0.441431     24.000000
 -0.378369  0.378369  0.504493     24.000000
  0.504493 -0.504493 -0.378369     24.000000
  0.441431 -0.441431 -0.315308     24.000000
  0.378369 -0.378369 -0.252246     24.000000
  0.315308 -0.315308 -0.189185     24.000000
  0.252246 -0.252246 -0.126123     24.000000
  0.189185 -0.189185 -0.063062     24.000000
  0.126123 -0.126123  0.000000     12.000000
  0.000000  0.000000  0.252246      6.000000
 -0.063062  0.063062  0.315308     24.000000
 -0.126123  0.126123  0.378369     24.000000
 -0.189185  0.189185  0.441431     24.000000
 -0.252246  0.252246  0.504493     24.000000
 -0.315308  0.315308  0.567554     24.000000
  0.567554 -0.567554 -0.315308     24.000000
  0.504493 -0.504493 -0.252246     24.000000
  0.441431 -0.441431 -0.189185     24.000000
  0.378369 -0.378369 -0.126123     24.000000
  0.315308 -0.315308 -0.063062     24.000000
  0.252246 -0.252246  0.000000     12.000000
  0.000000  0.000000  0.378369      6.000000
 -0.063062  0.063062  0.441431     24.000000
 -0.126123  0.126123  0.504493     24.000000
 -0.189185  0.189185  0.567554     24.000000
 -0.252246  0.252246  0.630616     24.000000
  0.630616 -0.630616 -0.252246     24.000000
  0.567554 -0.567554 -0.189185     24.000000
  0.504493 -0.504493 -0.126123     24.000000
  0.441431 -0.441431 -0.063062     24.000000
  0.378369 -0.378369  0.000000     12.000000
  0.000000  0.000000  0.504493      6.000000
 -0.063062  0.063062  0.567554     24.000000
 -0.126123  0.126123  0.630616     24.000000
 -0.189185  0.189185  0.693677     24.000000
  0.693677 -0.693677 -0.189185     24.000000
  0.630616 -0.630616 -0.126123     24.000000
  0.567554 -0.567554 -0.063062     24.000000
  0.504493 -0.504493  0.000000     12.000000
  0.000000  0.000000  0.630616      6.000000
 -0.063062  0.063062  0.693677     24.000000
 -0.126123  0.126123  0.756739     24.000000
  0.756739 -0.756739 -0.126123     24.000000
  0.693677 -0.693677 -0.063062     24.000000
  0.630616 -0.630616  0.000000     12.000000
  0.000000  0.000000  0.756739      6.000000
 -0.063062  0.063062  0.819800     24.000000
  0.819800 -0.819800 -0.063062     24.000000
  0.756739 -0.756739  0.000000     12.000000
  0.000000  0.000000  0.882862      6.000000
  0.882862 -0.882862  0.000000     12.000000
  0.000000  0.126123  0.252246     24.000000
 -0.063062  0.189185  0.315308     48.000000
 -0.126123  0.252246  0.378369     48.000000
 -0.189185  0.315308  0.441431     48.000000
 -0.252246  0.378369  0.504493     48.000000
  0.630616 -0.504493 -0.378369     48.000000
  0.000000  0.126123  0.378369     24.000000
 -0.063062  0.189185  0.441431     48.000000
 -0.126123  0.252246  0.504493     48.000000
 -0.189185  0.315308  0.567554     48.000000
  0.693677 -0.567554 -0.315308     48.000000
  0.630616 -0.504493 -0.252246     48.000000
  0.567554 -0.441431 -0.189185     48.000000
  0.504493 -0.378369 -0.126123     48.000000
  0.441431 -0.315308 -0.063062     48.000000
  0.378369 -0.252246  0.000000     24.000000
  0.000000  0.126123  0.504493     24.000000
 -0.063062  0.189185  0.567554     48.000000
 -0.126123  0.252246  0.630616     48.000000
  0.756739 -0.630616 -0.252246     48.000000
  0.693677 -0.567554 -0.189185     48.000000
  0.630616 -0.504493 -0.126123     48.000000
  0.567554 -0.441431 -0.063062     48.000000
  0.504493 -0.378369 -0.000000     24.000000
 -0.000000  0.126123  0.630616     24.000000
 -0.063062  0.189185  0.693677     48.000000
  0.819800 -0.693677 -0.189185     48.000000
  0.756739 -0.630616 -0.126123     48.000000
  0.693677 -0.567554 -0.063062     48.000000
  0.630616 -0.504493  0.000000     24.000000
  0.000000  0.126123  0.756739     24.000000
  0.882862 -0.756739 -0.126123     48.000000
  0.819800 -0.693677 -0.063062     48.000000
  0.756739 -0.630616  0.000000     24.000000
  0.945924 -0.819800 -0.063062     24.000000
  0.882862 -0.756739 -0.000000     24.000000
  0.000000  0.252246  0.504493     24.000000
 -0.063062  0.315308  0.567554     48.000000
  0.819800 -0.567554 -0.315308     48.000000
  0.756739 -0.504493 -0.252246     48.000000
  0.000000  0.252246  0.630616     24.000000
  0.882862 -0.630616 -0.252246     48.000000
  0.819800 -0.567554 -0.189185     48.000000
  0.756739 -0.504493 -0.126123     48.000000
  0.693677 -0.441431 -0.063062     48.000000
  0.630616 -0.378369 -0.000000     24.000000
  0.945924 -0.693677 -0.189185     24.000000
  0.882862 -0.630616 -0.126123     48.000000
  0.819800 -0.567554 -0.063062     48.000000
  0.756739 -0.504493 -0.000000     24.000000
  0.945924 -0.693677 -0.063062     24.000000
  0.882862 -0.630616 -0.000000     24.000000
  0.945924 -0.567554 -0.189185     24.000000
  0.882862 -0.504493 -0.126123     48.000000
  0.945924 -0.567554 -0.063062     24.000000
  0.882862 -0.504493 -0.000000     24.000000
 


--------------------------------------------------------------------------------------------------------




 Dimension of arrays:
   k-points           NKPTS =    120   k-points in BZ     NKDIM =    120   number of bands    NBANDS=     28
   number of dos      NEDOS =   3000   number of ions     NIONS =      4
   non local maximal  LDIM  =      6   non local SUM 2l+1 LMDIM =     18
   total plane-waves  NPLWV =  27000
   max r-space proj   IRMAX =      1   max aug-charges    IRDMAX= 316063
   dimension x,y,z NGX =    30 NGY =   30 NGZ =   30
   dimension x,y,z NGXF=    60 NGYF=   60 NGZF=   60
   support grid    NGXF=   120 NGYF=  120 NGZF=  120
   ions per type =               2   1   1
 NGX,Y,Z   is equivalent  to a cutoff of  12.13, 12.13, 12.13 a.u.
 NGXF,Y,Z  is equivalent  to a cutoff of  24.26, 24.26, 24.26 a.u.


 I would recommend the setting:
   dimension x,y,z NGX =    30 NGY =   30 NGZ =   30
 SYSTEM =  OPT Job       	                         
 POSCAR =  Mn Mn Ga                                

 Startparameter for this run:
   NWRITE =      2    write-flag & timer
   PREC   = accura    normal or accurate (medium, high low for compatibility)
   ISTART =      0    job   : 0-new  1-cont  2-samecut
   ICHARG =      2    charge: 1-file 2-atom 10-const
   ISPIN  =      2    spin polarized calculation?
   LNONCOLLINEAR =      F non collinear calculations
   LSORBIT =      F    spin-orbit coupling
   INIWAV =      1    electr: 0-lowe 1-rand  2-diag
   LASPH  =      F    aspherical Exc in radial PAW
   METAGGA=      F    non-selfconsistent MetaGGA calc.

 Electronic Relaxation 1
   ENCUT  =  500.0 eV  36.75 Ry    6.06 a.u.   7.50  7.50  7.50*2*pi/ulx,y,z
   ENINI  =  500.0     initial cutoff
   ENAUG  =  569.1 eV  augmentation charge cutoff
   NELM   =    300;   NELMIN=  2; NELMDL= -6     # of ELM steps 
   EDIFF  = 0.1E-06   stopping-criterion for ELM
   LREAL  =      F    real-space projection
   NLSPLINE    = F    spline interpolate recip. space projectors
   LCOMPAT=      F    compatible to vasp.4.4
   GGA_COMPAT  = T    GGA compatible to vasp.4.4-vasp.4.6
   LMAXPAW     = -100 max onsite density
   LMAXMIX     =    2 max onsite mixed and CHGCAR
   VOSKOWN=      0    Vosko Wilk Nusair interpolation
   ROPT   =    0.00000   0.00000   0.00000
 Ionic relaxation
   EDIFFG = 0.1E-05   stopping-criterion for IOM
   NSW    =      0    number of steps for IOM
   NBLOCK =      1;   KBLOCK =      1    inner block; outer block 
   IBRION =     -1    ionic relax: 0-MD 1-quasi-New 2-CG
   NFREE  =      0    steps in history (QN), initial steepest desc. (CG)
   ISIF   =      3    stress and relaxation
   IWAVPR =     10    prediction:  0-non 1-charg 2-wave 3-comb
   ISYM   =      2    0-nonsym 1-usesym 2-fastsym
   LCORR  =      T    Harris-Foulkes like correction to forces

   POTIM  = 0.1000    time-step for ionic-motion
   TEIN   =    0.0    initial temperature
   TEBEG  =    0.0;   TEEND  =   0.0 temperature during run
   SMASS  =  -3.00    Nose mass-parameter (am)
   estimated Nose-frequenzy (Omega)   =  0.10E-29 period in steps =****** mass=  -0.386E-27a.u.
   SCALEE = 1.0000    scale energy and forces
   NPACO  =    256;   APACO  = 16.0  distance and # of slots for P.C.
   PSTRESS=    0.0 pullay stress

  Mass of Ions in am
   POMASS =  54.94 54.94 69.72
  Ionic Valenz
   ZVAL   =  13.00 13.00  3.00
  Atomic Wigner-Seitz radii
   RWIGS  =  -1.00 -1.00 -1.00
  virtual crystal weights 
   VCA    =   1.00  1.00  1.00
   NELECT =      42.0000    total number of electrons
   NUPDOWN=      -1.0000    fix difference up-down

 DOS related values:
   EMIN   =  10.00;   EMAX   =-10.00  energy-range for DOS
   EFERMI =   0.00
   ISMEAR =     0;   SIGMA  =   0.05  broadening in eV -4-tet -1-fermi 0-gaus

 Electronic relaxation 2 (details)
   IALGO  =     68    algorithm
   LDIAG  =      T    sub-space diagonalisation (order eigenvalues)
   LSUBROT=      F    optimize rotation matrix (better conditioning)
   TURBO    =      0    0=normal 1=particle mesh
   IRESTART =      0    0=no restart 2=restart with 2 vectors
   NREBOOT  =      0    no. of reboots
   NMIN     =      0    reboot dimension
   EREF     =   0.00    reference energy to select bands
   IMIX   =      4    mixing-type and parameters
     AMIX     =   0.40;   BMIX     =  1.00
     AMIX_MAG =   1.60;   BMIX_MAG =  1.00
     AMIN     =   0.10
     WC   =   100.;   INIMIX=   1;  MIXPRE=   1;  MAXMIX= -45

 Intra band minimization:
   WEIMIN = 0.0000     energy-eigenvalue tresh-hold
   EBREAK =  0.89E-09  absolut break condition
   DEPER  =   0.30     relativ break condition  

   TIME   =   0.40     timestep for ELM

  volume/ion in A,a.u.               =      12.29        82.91
  Fermi-wavevector in a.u.,A,eV,Ry     =   1.553595  2.935870 32.839822  2.413659
  Thomas-Fermi vector in A             =   2.657803
 
 Write flags
   LWAVE  =      F    write WAVECAR
   LCHARG =      T    write CHGCAR
   LVTOT  =      F    write LOCPOT, total local potential
   LVHAR  =      F    write LOCPOT, Hartree potential only
   LELF   =      F    write electronic localiz. function (ELF)
   LORBIT =     11    0 simple, 1 ext, 2 COOP (PROOUT)


 Dipole corrections
   LMONO  =      F    monopole corrections only (constant potential shift)
   LDIPOL =      F    correct potential (dipole corrections)
   IDIPOL =      0    1-x, 2-y, 3-z, 4-all directions 
   EPSILON=  1.0000000 bulk dielectric constant

 Exchange correlation treatment:
   GGA     =    --    GGA type
   LEXCH   =     8    internal setting for exchange type
   VOSKOWN=      0    Vosko Wilk Nusair interpolation
   LHFCALC =     F    Hartree Fock is set to
   LHFONE  =     F    Hartree Fock one center treatment
   AEXX    =    0.0000 exact exchange contribution

 Linear response parameters
   LEPSILON=     F    determine dielectric tensor
   LRPA    =     F    only Hartree local field effects (RPA)
   LNABLA  =     F    use nabla operator in PAW spheres
   LVEL    =     F    velocity operator in full k-point grid
   LINTERFAST=   F  fast interpolation
   KINTER  =     0    interpolate to denser k-point grid
   CSHIFT  =0.1000    complex shift for real part using Kramers Kronig
   OMEGAMAX=  -1.0    maximum frequency
   DEG_THRESHOLD= 0.2000000E-02 threshold for treating states as degnerate
   RTIME   =    0.100 relaxation time in fs

 Orbital magnetization related:
   ORBITALMAG=     F  switch on orbital magnetization
   LCHIMAG   =     F  perturbation theory with respect to B field
   DQ        =  0.001000  dq finite difference perturbation B field



--------------------------------------------------------------------------------------------------------


 Static calculation
 charge density and potential will be updated during run
 spin polarized calculation
 RMM-DIIS sequential band-by-band and
  variant of blocked Davidson during initial phase
 perform sub-space diagonalisation
    before iterative eigenvector-optimisation
 modified Broyden-mixing scheme, WC =      100.0
 initial mixing is a Kerker type mixing with AMIX =  0.4000 and BMIX =      1.0000
 Hartree-type preconditioning will be used
 using additional bands            7
 reciprocal scheme for non local part
 use partial core corrections
 calculate Harris-corrections to forces 
   (improved forces if not selfconsistent)
 use gradient corrections 
 use of overlap-Matrix (Vanderbilt PP)
 Gauss-broadening in eV      SIGMA  =   0.05


--------------------------------------------------------------------------------------------------------


  energy-cutoff  :      500.00
  volume of cell :       49.14
      direct lattice vectors                 reciprocal lattice vectors
     0.000000000  2.907211698  2.907211698    -0.171986099  0.171986099  0.171986099
     2.907211698  0.000000000  2.907211698     0.171986099 -0.171986099  0.171986099
     2.907211698  2.907211698  0.000000000     0.171986099  0.171986099 -0.171986099

  length of vectors
     4.111418212  4.111418212  4.111418212     0.297888662  0.297888662  0.297888662


 
 k-points in units of 2pi/SCALE and weight: Automatic Mesh # Generates Automatically
   0.00000000  0.00000000  0.00000000       0.000
  -0.06306157  0.06306157  0.06306157       0.002
  -0.12612314  0.12612314  0.12612314       0.002
  -0.18918471  0.18918471  0.18918471       0.002
  -0.25224628  0.25224628  0.25224628       0.002
  -0.31530785  0.31530785  0.31530785       0.002
  -0.37836942  0.37836942  0.37836942       0.002
  -0.44143099  0.44143099  0.44143099       0.002
   0.00000000  0.00000000  0.12612314       0.002
  -0.06306157  0.06306157  0.18918471       0.007
  -0.12612314  0.12612314  0.25224628       0.007
  -0.18918471  0.18918471  0.31530785       0.007
  -0.25224628  0.25224628  0.37836942       0.007
  -0.31530785  0.31530785  0.44143099       0.007
  -0.37836942  0.37836942  0.50449256       0.007
   0.50449256 -0.50449256 -0.37836942       0.007
   0.44143099 -0.44143099 -0.31530785       0.007
   0.37836942 -0.37836942 -0.25224628       0.007
   0.31530785 -0.31530785 -0.18918471       0.007
   0.25224628 -0.25224628 -0.12612314       0.007
   0.18918471 -0.18918471 -0.06306157       0.007
   0.12612314 -0.12612314  0.00000000       0.004
   0.00000000  0.00000000  0.25224628       0.002
  -0.06306157  0.06306157  0.31530785       0.007
  -0.12612314  0.12612314  0.37836942       0.007
  -0.18918471  0.18918471  0.44143099       0.007
  -0.25224628  0.25224628  0.50449256       0.007
  -0.31530785  0.31530785  0.56755413       0.007
   0.56755413 -0.56755413 -0.31530785       0.007
   0.50449256 -0.50449256 -0.25224628       0.007
   0.44143099 -0.44143099 -0.18918471       0.007
   0.37836942 -0.37836942 -0.12612314       0.007
   0.31530785 -0.31530785 -0.06306157       0.007
   0.25224628 -0.25224628  0.00000000       0.004
   0.00000000  0.00000000  0.37836942       0.002
  -0.06306157  0.06306157  0.44143099       0.007
  -0.12612314  0.12612314  0.50449256       0.007
  -0.18918471  0.18918471  0.56755413       0.007
  -0.25224628  0.25224628  0.63061570       0.007
   0.63061570 -0.63061570 -0.25224628       0.007
   0.56755413 -0.56755413 -0.18918471       0.007
   0.50449256 -0.50449256 -0.12612314       0.007
   0.44143099 -0.44143099 -0.06306157       0.007
   0.37836942 -0.37836942  0.00000000       0.004
   0.00000000  0.00000000  0.50449256       0.002
  -0.06306157  0.06306157  0.56755413       0.007
  -0.12612314  0.12612314  0.63061570       0.007
  -0.18918471  0.18918471  0.69367727       0.007
   0.69367727 -0.69367727 -0.18918471       0.007
   0.63061570 -0.63061570 -0.12612314       0.007
   0.56755413 -0.56755413 -0.06306157       0.007
   0.50449256 -0.50449256  0.00000000       0.004
   0.00000000  0.00000000  0.63061570       0.002
  -0.06306157  0.06306157  0.69367727       0.007
  -0.12612314  0.12612314  0.75673884       0.007
   0.75673884 -0.75673884 -0.12612314       0.007
   0.69367727 -0.69367727 -0.06306157       0.007
   0.63061570 -0.63061570  0.00000000       0.004
   0.00000000  0.00000000  0.75673884       0.002
  -0.06306157  0.06306157  0.81980041       0.007
   0.81980041 -0.81980041 -0.06306157       0.007
   0.75673884 -0.75673884  0.00000000       0.004
   0.00000000  0.00000000  0.88286198       0.002
   0.88286198 -0.88286198  0.00000000       0.004
   0.00000000  0.12612314  0.25224628       0.007
  -0.06306157  0.18918471  0.31530785       0.014
  -0.12612314  0.25224628  0.37836942       0.014
  -0.18918471  0.31530785  0.44143099       0.014
  -0.25224628  0.37836942  0.50449256       0.014
   0.63061570 -0.50449256 -0.37836942       0.014
   0.00000000  0.12612314  0.37836942       0.007
  -0.06306157  0.18918471  0.44143099       0.014
  -0.12612314  0.25224628  0.50449256       0.014
  -0.18918471  0.31530785  0.56755413       0.014
   0.69367727 -0.56755413 -0.31530785       0.014
   0.63061570 -0.50449256 -0.25224628       0.014
   0.56755413 -0.44143099 -0.18918471       0.014
   0.50449256 -0.37836942 -0.12612314       0.014
   0.44143099 -0.31530785 -0.06306157       0.014
   0.37836942 -0.25224628  0.00000000       0.007
   0.00000000  0.12612314  0.50449256       0.007
  -0.06306157  0.18918471  0.56755413       0.014
  -0.12612314  0.25224628  0.63061570       0.014
   0.75673884 -0.63061570 -0.25224628       0.014
   0.69367727 -0.56755413 -0.18918471       0.014
   0.63061570 -0.50449256 -0.12612314       0.014
   0.56755413 -0.44143099 -0.06306157       0.014
   0.50449256 -0.37836942 -0.00000000       0.007
  -0.00000000  0.12612314  0.63061570       0.007
  -0.06306157  0.18918471  0.69367727       0.014
   0.81980041 -0.69367727 -0.18918471       0.014
   0.75673884 -0.63061570 -0.12612314       0.014
   0.69367727 -0.56755413 -0.06306157       0.014
   0.63061570 -0.50449256  0.00000000       0.007
   0.00000000  0.12612314  0.75673884       0.007
   0.88286198 -0.75673884 -0.12612314       0.014
   0.81980041 -0.69367727 -0.06306157       0.014
   0.75673884 -0.63061570  0.00000000       0.007
   0.94592355 -0.81980041 -0.06306157       0.007
   0.88286198 -0.75673884 -0.00000000       0.007
   0.00000000  0.25224628  0.50449256       0.007
  -0.06306157  0.31530785  0.56755413       0.014
   0.81980041 -0.56755413 -0.31530785       0.014
   0.75673884 -0.50449256 -0.25224628       0.014
   0.00000000  0.25224628  0.63061570       0.007
   0.88286198 -0.63061570 -0.25224628       0.014
   0.81980041 -0.56755413 -0.18918471       0.014
   0.75673884 -0.50449256 -0.12612314       0.014
   0.69367727 -0.44143099 -0.06306157       0.014
   0.63061570 -0.37836942 -0.00000000       0.007
   0.94592355 -0.69367727 -0.18918471       0.007
   0.88286198 -0.63061570 -0.12612314       0.014
   0.81980041 -0.56755413 -0.06306157       0.014
   0.75673884 -0.50449256 -0.00000000       0.007
   0.94592355 -0.69367727 -0.06306157       0.007
   0.88286198 -0.63061570 -0.00000000       0.007
   0.94592355 -0.56755413 -0.18918471       0.007
   0.88286198 -0.50449256 -0.12612314       0.014
   0.94592355 -0.56755413 -0.06306157       0.007
   0.88286198 -0.50449256 -0.00000000       0.007
 
 k-points in reciprocal lattice and weights: Automatic Mesh # Generates Automatically
   0.00000000  0.00000000  0.00000000       0.000
   0.06666667  0.00000000  0.00000000       0.002
   0.13333333  0.00000000  0.00000000       0.002
   0.20000000  0.00000000  0.00000000       0.002
   0.26666667  0.00000000  0.00000000       0.002
   0.33333333  0.00000000  0.00000000       0.002
   0.40000000  0.00000000  0.00000000       0.002
   0.46666667  0.00000000  0.00000000       0.002
   0.06666667  0.06666667  0.00000000       0.002
   0.13333333  0.06666667  0.00000000       0.007
   0.20000000  0.06666667  0.00000000       0.007
   0.26666667  0.06666667  0.00000000       0.007
   0.33333333  0.06666667  0.00000000       0.007
   0.40000000  0.06666667  0.00000000       0.007
   0.46666667  0.06666667  0.00000000       0.007
  -0.46666667  0.06666667  0.00000000       0.007
  -0.40000000  0.06666667  0.00000000       0.007
  -0.33333333  0.06666667  0.00000000       0.007
  -0.26666667  0.06666667  0.00000000       0.007
  -0.20000000  0.06666667  0.00000000       0.007
  -0.13333333  0.06666667  0.00000000       0.007
  -0.06666667  0.06666667  0.00000000       0.004
   0.13333333  0.13333333  0.00000000       0.002
   0.20000000  0.13333333  0.00000000       0.007
   0.26666667  0.13333333  0.00000000       0.007
   0.33333333  0.13333333  0.00000000       0.007
   0.40000000  0.13333333  0.00000000       0.007
   0.46666667  0.13333333  0.00000000       0.007
  -0.46666667  0.13333333  0.00000000       0.007
  -0.40000000  0.13333333  0.00000000       0.007
  -0.33333333  0.13333333  0.00000000       0.007
  -0.26666667  0.13333333  0.00000000       0.007
  -0.20000000  0.13333333  0.00000000       0.007
  -0.13333333  0.13333333  0.00000000       0.004
   0.20000000  0.20000000  0.00000000       0.002
   0.26666667  0.20000000  0.00000000       0.007
   0.33333333  0.20000000  0.00000000       0.007
   0.40000000  0.20000000  0.00000000       0.007
   0.46666667  0.20000000  0.00000000       0.007
  -0.46666667  0.20000000  0.00000000       0.007
  -0.40000000  0.20000000  0.00000000       0.007
  -0.33333333  0.20000000  0.00000000       0.007
  -0.26666667  0.20000000  0.00000000       0.007
  -0.20000000  0.20000000  0.00000000       0.004
   0.26666667  0.26666667  0.00000000       0.002
   0.33333333  0.26666667  0.00000000       0.007
   0.40000000  0.26666667  0.00000000       0.007
   0.46666667  0.26666667  0.00000000       0.007
  -0.46666667  0.26666667  0.00000000       0.007
  -0.40000000  0.26666667  0.00000000       0.007
  -0.33333333  0.26666667  0.00000000       0.007
  -0.26666667  0.26666667  0.00000000       0.004
   0.33333333  0.33333333  0.00000000       0.002
   0.40000000  0.33333333  0.00000000       0.007
   0.46666667  0.33333333  0.00000000       0.007
  -0.46666667  0.33333333  0.00000000       0.007
  -0.40000000  0.33333333  0.00000000       0.007
  -0.33333333  0.33333333  0.00000000       0.004
   0.40000000  0.40000000  0.00000000       0.002
   0.46666667  0.40000000  0.00000000       0.007
  -0.46666667  0.40000000  0.00000000       0.007
  -0.40000000  0.40000000  0.00000000       0.004
   0.46666667  0.46666667  0.00000000       0.002
  -0.46666667  0.46666667  0.00000000       0.004
   0.20000000  0.13333333  0.06666667       0.007
   0.26666667  0.13333333  0.06666667       0.014
   0.33333333  0.13333333  0.06666667       0.014
   0.40000000  0.13333333  0.06666667       0.014
   0.46666667  0.13333333  0.06666667       0.014
  -0.46666667  0.13333333  0.06666667       0.014
   0.26666667  0.20000000  0.06666667       0.007
   0.33333333  0.20000000  0.06666667       0.014
   0.40000000  0.20000000  0.06666667       0.014
   0.46666667  0.20000000  0.06666667       0.014
  -0.46666667  0.20000000  0.06666667       0.014
  -0.40000000  0.20000000  0.06666667       0.014
  -0.33333333  0.20000000  0.06666667       0.014
  -0.26666667  0.20000000  0.06666667       0.014
  -0.20000000  0.20000000  0.06666667       0.014
  -0.13333333  0.20000000  0.06666667       0.007
   0.33333333  0.26666667  0.06666667       0.007
   0.40000000  0.26666667  0.06666667       0.014
   0.46666667  0.26666667  0.06666667       0.014
  -0.46666667  0.26666667  0.06666667       0.014
  -0.40000000  0.26666667  0.06666667       0.014
  -0.33333333  0.26666667  0.06666667       0.014
  -0.26666667  0.26666667  0.06666667       0.014
  -0.20000000  0.26666667  0.06666667       0.007
   0.40000000  0.33333333  0.06666667       0.007
   0.46666667  0.33333333  0.06666667       0.014
  -0.46666667  0.33333333  0.06666667       0.014
  -0.40000000  0.33333333  0.06666667       0.014
  -0.33333333  0.33333333  0.06666667       0.014
  -0.26666667  0.33333333  0.06666667       0.007
   0.46666667  0.40000000  0.06666667       0.007
  -0.46666667  0.40000000  0.06666667       0.014
  -0.40000000  0.40000000  0.06666667       0.014
  -0.33333333  0.40000000  0.06666667       0.007
  -0.46666667  0.46666667  0.06666667       0.007
  -0.40000000  0.46666667  0.06666667       0.007
   0.40000000  0.26666667  0.13333333       0.007
   0.46666667  0.26666667  0.13333333       0.014
  -0.46666667  0.26666667  0.13333333       0.014
  -0.40000000  0.26666667  0.13333333       0.014
   0.46666667  0.33333333  0.13333333       0.007
  -0.46666667  0.33333333  0.13333333       0.014
  -0.40000000  0.33333333  0.13333333       0.014
  -0.33333333  0.33333333  0.13333333       0.014
  -0.26666667  0.33333333  0.13333333       0.014
  -0.20000000  0.33333333  0.13333333       0.007
  -0.46666667  0.40000000  0.13333333       0.007
  -0.40000000  0.40000000  0.13333333       0.014
  -0.33333333  0.40000000  0.13333333       0.014
  -0.26666667  0.40000000  0.13333333       0.007
  -0.40000000  0.46666667  0.13333333       0.007
  -0.33333333  0.46666667  0.13333333       0.007
  -0.40000000  0.40000000  0.20000000       0.007
  -0.33333333  0.40000000  0.20000000       0.014
  -0.33333333  0.46666667  0.20000000       0.007
  -0.26666667  0.46666667  0.20000000       0.007
 
 position of ions in fractional coordinates (direct lattice) 
   0.00000000  0.00000000  0.00000000
   0.25000000  0.25000000  0.25000000
   0.75000000  0.75000000  0.75000000
   0.50000000  0.50000000  0.50000000
 
 position of ions in cartesian coordinates  (Angst):
   0.00000000  0.00000000  0.00000000
   1.45360585  1.45360585  1.45360585
   4.36081755  4.36081755  4.36081755
   2.90721170  2.90721170  2.90721170
 


--------------------------------------------------------------------------------------------------------


 k-point  1 :   0.0000 0.0000 0.0000  plane waves:    1243
 k-point  2 :   0.0667 0.0000 0.0000  plane waves:    1243
 k-point  3 :   0.1333 0.0000 0.0000  plane waves:    1266
 k-point  4 :   0.2000 0.0000 0.0000  plane waves:    1266
 k-point  5 :   0.2667 0.0000 0.0000  plane waves:    1251
 k-point  6 :   0.3333 0.0000 0.0000  plane waves:    1272
 k-point  7 :   0.4000 0.0000 0.0000  plane waves:    1251
 k-point  8 :   0.4667 0.0000 0.0000  plane waves:    1242
 k-point  9 :   0.0667 0.0667 0.0000  plane waves:    1243
 k-point 10 :   0.1333 0.0667 0.0000  plane waves:    1260
 k-point 11 :   0.2000 0.0667 0.0000  plane waves:    1262
 k-point 12 :   0.2667 0.0667 0.0000  plane waves:    1255
 k-point 13 :   0.3333 0.0667 0.0000  plane waves:    1256
 k-point 14 :   0.4000 0.0667 0.0000  plane waves:    1249
 k-point 15 :   0.4667 0.0667 0.0000  plane waves:    1238
 k-point 16 :  -0.4667 0.0667 0.0000  plane waves:    1231
 k-point 17 :  -0.4000 0.0667 0.0000  plane waves:    1243
 k-point 18 :  -0.3333 0.0667 0.0000  plane waves:    1251
 k-point 19 :  -0.2667 0.0667 0.0000  plane waves:    1255
 k-point 20 :  -0.2000 0.0667 0.0000  plane waves:    1256
 k-point 21 :  -0.1333 0.0667 0.0000  plane waves:    1259
 k-point 22 :  -0.0667 0.0667 0.0000  plane waves:    1257
 k-point 23 :   0.1333 0.1333 0.0000  plane waves:    1259
 k-point 24 :   0.2000 0.1333 0.0000  plane waves:    1264
 k-point 25 :   0.2667 0.1333 0.0000  plane waves:    1251
 k-point 26 :   0.3333 0.1333 0.0000  plane waves:    1254
 k-point 27 :   0.4000 0.1333 0.0000  plane waves:    1253
 k-point 28 :   0.4667 0.1333 0.0000  plane waves:    1240
 k-point 29 :  -0.4667 0.1333 0.0000  plane waves:    1240
 k-point 30 :  -0.4000 0.1333 0.0000  plane waves:    1244
 k-point 31 :  -0.3333 0.1333 0.0000  plane waves:    1248
 k-point 32 :  -0.2667 0.1333 0.0000  plane waves:    1251
 k-point 33 :  -0.2000 0.1333 0.0000  plane waves:    1257
 k-point 34 :  -0.1333 0.1333 0.0000  plane waves:    1253
 k-point 35 :   0.2000 0.2000 0.0000  plane waves:    1263
 k-point 36 :   0.2667 0.2000 0.0000  plane waves:    1264
 k-point 37 :   0.3333 0.2000 0.0000  plane waves:    1257
 k-point 38 :   0.4000 0.2000 0.0000  plane waves:    1252
 k-point 39 :   0.4667 0.2000 0.0000  plane waves:    1249
 k-point 40 :  -0.4667 0.2000 0.0000  plane waves:    1242
 k-point 41 :  -0.4000 0.2000 0.0000  plane waves:    1242
 k-point 42 :  -0.3333 0.2000 0.0000  plane waves:    1249
 k-point 43 :  -0.2667 0.2000 0.0000  plane waves:    1255
 k-point 44 :  -0.2000 0.2000 0.0000  plane waves:    1259
 k-point 45 :   0.2667 0.2667 0.0000  plane waves:    1267
 k-point 46 :   0.3333 0.2667 0.0000  plane waves:    1262
 k-point 47 :   0.4000 0.2667 0.0000  plane waves:    1252
 k-point 48 :   0.4667 0.2667 0.0000  plane waves:    1246
 k-point 49 :  -0.4667 0.2667 0.0000  plane waves:    1243
 k-point 50 :  -0.4000 0.2667 0.0000  plane waves:    1246
 k-point 51 :  -0.3333 0.2667 0.0000  plane waves:    1240
 k-point 52 :  -0.2667 0.2667 0.0000  plane waves:    1256
 k-point 53 :   0.3333 0.3333 0.0000  plane waves:    1258
 k-point 54 :   0.4000 0.3333 0.0000  plane waves:    1248
 k-point 55 :   0.4667 0.3333 0.0000  plane waves:    1241
 k-point 56 :  -0.4667 0.3333 0.0000  plane waves:    1248
 k-point 57 :  -0.4000 0.3333 0.0000  plane waves:    1244
 k-point 58 :  -0.3333 0.3333 0.0000  plane waves:    1234
 k-point 59 :   0.4000 0.4000 0.0000  plane waves:    1246
 k-point 60 :   0.4667 0.4000 0.0000  plane waves:    1246
 k-point 61 :  -0.4667 0.4000 0.0000  plane waves:    1245
 k-point 62 :  -0.4000 0.4000 0.0000  plane waves:    1248
 k-point 63 :   0.4667 0.4667 0.0000  plane waves:    1242
 k-point 64 :  -0.4667 0.4667 0.0000  plane waves:    1250
 k-point 65 :   0.2000 0.1333 0.0667  plane waves:    1266
 k-point 66 :   0.2667 0.1333 0.0667  plane waves:    1264
 k-point 67 :   0.3333 0.1333 0.0667  plane waves:    1256
 k-point 68 :   0.4000 0.1333 0.0667  plane waves:    1256
 k-point 69 :   0.4667 0.1333 0.0667  plane waves:    1243
 k-point 70 :  -0.4667 0.1333 0.0667  plane waves:    1240
 k-point 71 :   0.2667 0.2000 0.0667  plane waves:    1263
 k-point 72 :   0.3333 0.2000 0.0667  plane waves:    1256
 k-point 73 :   0.4000 0.2000 0.0667  plane waves:    1260
 k-point 74 :   0.4667 0.2000 0.0667  plane waves:    1248
 k-point 75 :  -0.4667 0.2000 0.0667  plane waves:    1238
 k-point 76 :  -0.4000 0.2000 0.0667  plane waves:    1240
 k-point 77 :  -0.3333 0.2000 0.0667  plane waves:    1245
 k-point 78 :  -0.2667 0.2000 0.0667  plane waves:    1249
 k-point 79 :  -0.2000 0.2000 0.0667  plane waves:    1255
 k-point 80 :  -0.1333 0.2000 0.0667  plane waves:    1257
 k-point 81 :   0.3333 0.2667 0.0667  plane waves:    1262
 k-point 82 :   0.4000 0.2667 0.0667  plane waves:    1253
 k-point 83 :   0.4667 0.2667 0.0667  plane waves:    1250
 k-point 84 :  -0.4667 0.2667 0.0667  plane waves:    1243
 k-point 85 :  -0.4000 0.2667 0.0667  plane waves:    1242
 k-point 86 :  -0.3333 0.2667 0.0667  plane waves:    1245
 k-point 87 :  -0.2667 0.2667 0.0667  plane waves:    1248
 k-point 88 :  -0.2000 0.2667 0.0667  plane waves:    1243
 k-point 89 :   0.4000 0.3333 0.0667  plane waves:    1252
 k-point 90 :   0.4667 0.3333 0.0667  plane waves:    1249
 k-point 91 :  -0.4667 0.3333 0.0667  plane waves:    1241
 k-point 92 :  -0.4000 0.3333 0.0667  plane waves:    1248
 k-point 93 :  -0.3333 0.3333 0.0667  plane waves:    1248
 k-point 94 :  -0.2667 0.3333 0.0667  plane waves:    1239
 k-point 95 :   0.4667 0.4000 0.0667  plane waves:    1245
 k-point 96 :  -0.4667 0.4000 0.0667  plane waves:    1243
 k-point 97 :  -0.4000 0.4000 0.0667  plane waves:    1246
 k-point 98 :  -0.3333 0.4000 0.0667  plane waves:    1246
 k-point 99 :  -0.4667 0.4667 0.0667  plane waves:    1248
 k-point ** :  -0.4000 0.4667 0.0667  plane waves:    1242
 k-point ** :   0.4000 0.2667 0.1333  plane waves:    1264
 k-point ** :   0.4667 0.2667 0.1333  plane waves:    1248
 k-point ** :  -0.4667 0.2667 0.1333  plane waves:    1246
 k-point ** :  -0.4000 0.2667 0.1333  plane waves:    1238
 k-point ** :   0.4667 0.3333 0.1333  plane waves:    1248
 k-point ** :  -0.4667 0.3333 0.1333  plane waves:    1242
 k-point ** :  -0.4000 0.3333 0.1333  plane waves:    1237
 k-point ** :  -0.3333 0.3333 0.1333  plane waves:    1237
 k-point ** :  -0.2667 0.3333 0.1333  plane waves:    1240
 k-point ** :  -0.2000 0.3333 0.1333  plane waves:    1243
 k-point ** :  -0.4667 0.4000 0.1333  plane waves:    1243
 k-point ** :  -0.4000 0.4000 0.1333  plane waves:    1241
 k-point ** :  -0.3333 0.4000 0.1333  plane waves:    1243
 k-point ** :  -0.2667 0.4000 0.1333  plane waves:    1242
 k-point ** :  -0.4000 0.4667 0.1333  plane waves:    1240
 k-point ** :  -0.3333 0.4667 0.1333  plane waves:    1247
 k-point ** :  -0.4000 0.4000 0.2000  plane waves:    1231
 k-point ** :  -0.3333 0.4000 0.2000  plane waves:    1239
 k-point ** :  -0.3333 0.4667 0.2000  plane waves:    1239
 k-point ** :  -0.2667 0.4667 0.2000  plane waves:    1238

 maximum and minimum number of plane-waves per node :      1272     1231

 maximum number of plane-waves:      1272
 maximum index in each direction: 
   IXMAX=    7   IYMAX=    7   IZMAX=    7
   IXMIN=   -7   IYMIN=   -7   IZMIN=   -7

 NGX is ok and might be reduce to  30
 NGY is ok and might be reduce to  30
 NGZ is ok and might be reduce to  30

 serial   3D FFT for wavefunctions
 parallel 3D FFT for charge:
    minimum data exchange during FFTs selected (reduces bandwidth)


 total amount of memory used by VASP on root node   147352. kBytes
========================================================================

   base      :      30000. kBytes
   nonl-proj :      66021. kBytes
   fftplans  :       8118. kBytes
   grid      :       7070. kBytes
   one-center:        124. kBytes
   wavefun   :      36019. kBytes
 
     INWAV:  cpu time    0.0000: real time    0.0007
 Broyden mixing: mesh for mixing (old mesh)
   NGX = 15   NGY = 15   NGZ = 15
  (NGX  = 60   NGY  = 60   NGZ  = 60)
  gives a total of   3375 points

 initial charge density was supplied:
 charge density of overlapping atoms calculated
 number of electron      42.0000000 magnetization       2.5000000
 keeping initial charge density in first step


--------------------------------------------------------------------------------------------------------


 Maximum index for augmentation-charges        76651 (set IRDMAX)


--------------------------------------------------------------------------------------------------------


 First call to EWALD:  gamma=   0.484
 Maximum number of real-space cells 3x 3x 3
 Maximum number of reciprocal cells 3x 3x 3

 FEWALD executed in parallel
    FEWALD:  cpu time    0.0010: real time    0.0011


----------------------------------------- Iteration    1(   1)  ---------------------------------------


    POTLOK:  cpu time    0.0580: real time    0.0579
    SETDIJ:  cpu time    0.2050: real time    0.2064
     EDDAV:  cpu time    6.3400: real time    6.3519
       DOS:  cpu time    0.0060: real time    0.0053
    --------------------------------------------
      LOOP:  cpu time    6.6110: real time    6.6246

 eigenvalue-minimisations  : 13888
 total energy-change (2. order) : 0.4676393E+03  (-0.2362576E+04)
 number of electron      42.0000000 magnetization       2.5000000
 augmentation part       42.0000000 magnetization       2.5000000

 Free energy of the ion-electron system (eV)
  ---------------------------------------------------
  alpha Z        PSCENC =       288.64849481
  Ewald energy   TEWEN  =     -4317.05649328
  -Hartree energ DENC   =     -1700.93646658
  -exchange      EXHF   =         0.00000000
  -V(xc)+E(xc)   XCENC  =       190.04289325
  PAW double counting   =      4999.28074727    -5127.65501786
  entropy T*S    EENTRO =        -0.00299570
  eigenvalues    EBANDS =         0.66873133
  atomic energy  EATOM  =      6134.64944490
  Solvation  Ediel_sol  =         0.00000000
  ---------------------------------------------------
  free energy    TOTEN  =       467.63933812 eV

  energy without entropy =      467.64233382  energy(sigma->0) =      467.64083597


--------------------------------------------------------------------------------------------------------




----------------------------------------- Iteration    1(   2)  ---------------------------------------


     EDDAV:  cpu time    6.1981: real time    6.2099
       DOS:  cpu time    0.0060: real time    0.0060
    --------------------------------------------
      LOOP:  cpu time    6.2041: real time    6.2191

 eigenvalue-minimisations  : 13472
 total energy-change (2. order) :-0.4742802E+03  (-0.4621478E+03)
 number of electron      42.0000000 magnetization       2.5000000
 augmentation part       42.0000000 magnetization       2.5000000

 Free energy of the ion-electron system (eV)
  ---------------------------------------------------
  alpha Z        PSCENC =       288.64849481
  Ewald energy   TEWEN  =     -4317.05649328
  -Hartree energ DENC   =     -1700.93646658
  -exchange      EXHF   =         0.00000000
  -V(xc)+E(xc)   XCENC  =       190.04289325
  PAW double counting   =      4999.28074727    -5127.65501786
  entropy T*S    EENTRO =        -0.00814507
  eigenvalues    EBANDS =      -473.60628466
  atomic energy  EATOM  =      6134.64944490
  Solvation  Ediel_sol  =         0.00000000
  ---------------------------------------------------
  free energy    TOTEN  =        -6.64082724 eV

  energy without entropy =       -6.63268217  energy(sigma->0) =       -6.63675470


--------------------------------------------------------------------------------------------------------




----------------------------------------- Iteration    1(   3)  ---------------------------------------


     EDDAV:  cpu time    6.5710: real time    6.5842
       DOS:  cpu time    0.0070: real time    0.0063
    --------------------------------------------
      LOOP:  cpu time    6.5790: real time    6.5938

 eigenvalue-minimisations  : 14700
 total energy-change (2. order) :-0.2680768E+02  (-0.2564000E+02)
 number of electron      42.0000000 magnetization       2.5000000
 augmentation part       42.0000000 magnetization       2.5000000

 Free energy of the ion-electron system (eV)
  ---------------------------------------------------
  alpha Z        PSCENC =       288.64849481
  Ewald energy   TEWEN  =     -4317.05649328
  -Hartree energ DENC   =     -1700.93646658
  -exchange      EXHF   =         0.00000000
  -V(xc)+E(xc)   XCENC  =       190.04289325
  PAW double counting   =      4999.28074727    -5127.65501786
  entropy T*S    EENTRO =        -0.00668061
  eigenvalues    EBANDS =      -500.41543248
  atomic energy  EATOM  =      6134.64944490
  Solvation  Ediel_sol  =         0.00000000
  ---------------------------------------------------
  free energy    TOTEN  =       -33.44851059 eV

  energy without entropy =      -33.44182998  energy(sigma->0) =      -33.44517028


--------------------------------------------------------------------------------------------------------




----------------------------------------- Iteration    1(   4)  ---------------------------------------


     EDDAV:  cpu time    6.5160: real time    6.5278
       DOS:  cpu time    0.0060: real time    0.0064
    --------------------------------------------
      LOOP:  cpu time    6.5220: real time    6.5375

 eigenvalue-minimisations  : 14516
 total energy-change (2. order) :-0.6304105E+00  (-0.6273715E+00)
 number of electron      42.0000000 magnetization       2.5000000
 augmentation part       42.0000000 magnetization       2.5000000

 Free energy of the ion-electron system (eV)
  ---------------------------------------------------
  alpha Z        PSCENC =       288.64849481
  Ewald energy   TEWEN  =     -4317.05649328
  -Hartree energ DENC   =     -1700.93646658
  -exchange      EXHF   =         0.00000000
  -V(xc)+E(xc)   XCENC  =       190.04289325
  PAW double counting   =      4999.28074727    -5127.65501786
  entropy T*S    EENTRO =        -0.00641523
  eigenvalues    EBANDS =      -501.04610831
  atomic energy  EATOM  =      6134.64944490
  Solvation  Ediel_sol  =         0.00000000
  ---------------------------------------------------
  free energy    TOTEN  =       -34.07892104 eV

  energy without entropy =      -34.07250581  energy(sigma->0) =      -34.07571343


--------------------------------------------------------------------------------------------------------




----------------------------------------- Iteration    1(   5)  ---------------------------------------


     EDDAV:  cpu time    6.5310: real time    6.5435
       DOS:  cpu time    0.0060: real time    0.0064
    --------------------------------------------
      LOOP:  cpu time    6.5380: real time    6.5613

 eigenvalue-minimisations  : 14560
 total energy-change (2. order) :-0.1159430E-01  (-0.1159258E-01)
 number of electron      42.0000000 magnetization       2.5000000
 augmentation part       42.0000000 magnetization       2.5000000

 Free energy of the ion-electron system (eV)
  ---------------------------------------------------
  alpha Z        PSCENC =       288.64849481
  Ewald energy   TEWEN  =     -4317.05649328
  -Hartree energ DENC   =     -1700.93646658
  -exchange      EXHF   =         0.00000000
  -V(xc)+E(xc)   XCENC  =       190.04289325
  PAW double counting   =      4999.28074727    -5127.65501786
  entropy T*S    EENTRO =        -0.00641631
  eigenvalues    EBANDS =      -501.05770153
  atomic energy  EATOM  =      6134.64944490
  Solvation  Ediel_sol  =         0.00000000
  ---------------------------------------------------
  free energy    TOTEN  =       -34.09051534 eV

  energy without entropy =      -34.08409903  energy(sigma->0) =      -34.08730719


--------------------------------------------------------------------------------------------------------




----------------------------------------- Iteration    1(   6)  ---------------------------------------


     EDDAV:  cpu time    6.8710: real time    6.8843
       DOS:  cpu time    0.0060: real time    0.0065
    CHARGE:  cpu time    0.5899: real time    0.5893
    MIXING:  cpu time    0.0010: real time    0.0015
    --------------------------------------------
      LOOP:  cpu time    7.4689: real time    7.4848

 eigenvalue-minimisations  : 15640
 total energy-change (2. order) :-0.4234426E-03  (-0.4234369E-03)
 number of electron      42.0000002 magnetization      -0.1616652
 augmentation part       19.4211790 magnetization      -0.0407651

 Broyden mixing:
  rms(total) = 0.22992E+01    rms(broyden)= 0.22991E+01
  rms(prec ) = 0.46393E+01
  weight for this iteration     100.00

 Free energy of the ion-electron system (eV)
  ---------------------------------------------------
  alpha Z        PSCENC =       288.64849481
  Ewald energy   TEWEN  =     -4317.05649328
  -Hartree energ DENC   =     -1700.93646658
  -exchange      EXHF   =         0.00000000
  -V(xc)+E(xc)   XCENC  =       190.04289325
  PAW double counting   =      4999.28074727    -5127.65501786
  entropy T*S    EENTRO =        -0.00641623
  eigenvalues    EBANDS =      -501.05812506
  atomic energy  EATOM  =      6134.64944490
  Solvation  Ediel_sol  =         0.00000000
  ---------------------------------------------------
  free energy    TOTEN  =       -34.09093879 eV

  energy without entropy =      -34.08452256  energy(sigma->0) =      -34.08773067


--------------------------------------------------------------------------------------------------------




----------------------------------------- Iteration    1(   7)  ---------------------------------------


    POTLOK:  cpu time    0.0580: real time    0.0594
    SETDIJ:  cpu time    0.2080: real time    0.2076
    EDDIAG:  cpu time    1.2658: real time    1.2688
  RMM-DIIS:  cpu time    4.9752: real time    4.9859
    ORTHCH:  cpu time    0.0610: real time    0.0611
       DOS:  cpu time    0.0060: real time    0.0061
    CHARGE:  cpu time    0.5889: real time    0.5894
    MIXING:  cpu time    0.0020: real time    0.0022
    --------------------------------------------
      LOOP:  cpu time    7.1669: real time    7.1843

 eigenvalue-minimisations  : 13594
 total energy-change (2. order) : 0.2234927E+01  (-0.5049419E+01)
 number of electron      42.0000002 magnetization       0.1759672
 augmentation part       22.0539157 magnetization       0.0054849

 Broyden mixing:
  rms(total) = 0.17915E+01    rms(broyden)= 0.17914E+01
  rms(prec ) = 0.40492E+01
  weight for this iteration     100.00

 eigenvalues of (default mixing * dielectric matrix)
  average eigenvalue GAMMA=   0.5198
  0.5198

 Free energy of the ion-electron system (eV)
  ---------------------------------------------------
  alpha Z        PSCENC =       288.64849481
  Ewald energy   TEWEN  =     -4317.05649328
  -Hartree energ DENC   =     -1569.82774126
  -exchange      EXHF   =         0.00000000
  -V(xc)+E(xc)   XCENC  =       183.60247634
  PAW double counting   =      5201.63764574    -5327.51441020
  entropy T*S    EENTRO =        -0.00635990
  eigenvalues    EBANDS =      -625.98906936
  atomic energy  EATOM  =      6134.64944490
  Solvation  Ediel_sol  =         0.00000000
  ---------------------------------------------------
  free energy    TOTEN  =       -31.85601222 eV

  energy without entropy =      -31.84965232  energy(sigma->0) =      -31.85283227


--------------------------------------------------------------------------------------------------------




----------------------------------------- Iteration    1(   8)  ---------------------------------------


    POTLOK:  cpu time    0.0590: real time    0.0590
    SETDIJ:  cpu time    0.2030: real time    0.2055
    EDDIAG:  cpu time    1.2668: real time    1.2680
  RMM-DIIS:  cpu time    4.9402: real time    4.9514
    ORTHCH:  cpu time    0.0610: real time    0.0610
       DOS:  cpu time    0.0060: real time    0.0060
    CHARGE:  cpu time    0.5929: real time    0.5944
    MIXING:  cpu time    0.0030: real time    0.0023
    --------------------------------------------
      LOOP:  cpu time    7.1329: real time    7.1513

 eigenvalue-minimisations  : 13675
 total energy-change (2. order) :-0.3676228E+01  (-0.8453670E+00)
 number of electron      42.0000003 magnetization       0.2462631
 augmentation part       21.8837970 magnetization       0.5795967

 Broyden mixing:
  rms(total) = 0.35224E+01    rms(broyden)= 0.35221E+01
  rms(prec ) = 0.10216E+02
  weight for this iteration     100.00

 eigenvalues of (default mixing * dielectric matrix)
  average eigenvalue GAMMA=   0.4229
  0.6588  0.1869

 Free energy of the ion-electron system (eV)
  ---------------------------------------------------
  alpha Z        PSCENC =       288.64849481
  Ewald energy   TEWEN  =     -4317.05649328
  -Hartree energ DENC   =     -1595.87171746
  -exchange      EXHF   =         0.00000000
  -V(xc)+E(xc)   XCENC  =       184.88364129
  PAW double counting   =      5359.16420730    -5489.10946298
  entropy T*S    EENTRO =        -0.00225699
  eigenvalues    EBANDS =      -600.83809781
  atomic energy  EATOM  =      6134.64944490
  Solvation  Ediel_sol  =         0.00000000
  ---------------------------------------------------
  free energy    TOTEN  =       -35.53224021 eV

  energy without entropy =      -35.52998323  energy(sigma->0) =      -35.53111172


--------------------------------------------------------------------------------------------------------




----------------------------------------- Iteration    1(   9)  ---------------------------------------


    POTLOK:  cpu time    0.0590: real time    0.0600
    SETDIJ:  cpu time    0.2070: real time    0.2074
    EDDIAG:  cpu time    1.2668: real time    1.2684
  RMM-DIIS:  cpu time    4.9263: real time    4.9359
    ORTHCH:  cpu time    0.0610: real time    0.0610
       DOS:  cpu time    0.0060: real time    0.0060
    CHARGE:  cpu time    0.5929: real time    0.5952
    MIXING:  cpu time    0.0020: real time    0.0017
    --------------------------------------------
      LOOP:  cpu time    7.1219: real time    7.1389

 eigenvalue-minimisations  : 13660
 total energy-change (2. order) : 0.5371902E+01  (-0.6481214E+00)
 number of electron      42.0000002 magnetization       0.0148072
 augmentation part       21.2512025 magnetization       0.0548217

 Broyden mixing:
  rms(total) = 0.53168E+00    rms(broyden)= 0.53101E+00
  rms(prec ) = 0.80385E+00
  weight for this iteration     100.00

 eigenvalues of (default mixing * dielectric matrix)
  average eigenvalue GAMMA=   0.5024
  0.8888  0.4867  0.1317

 Free energy of the ion-electron system (eV)
  ---------------------------------------------------
  alpha Z        PSCENC =       288.64849481
  Ewald energy   TEWEN  =     -4317.05649328
  -Hartree energ DENC   =     -1606.29150193
  -exchange      EXHF   =         0.00000000
  -V(xc)+E(xc)   XCENC  =       185.21325575
  PAW double counting   =      5438.52447460    -5570.37374552
  entropy T*S    EENTRO =        -0.00823644
  eigenvalues    EBANDS =      -583.46603128
  atomic energy  EATOM  =      6134.64944490
  Solvation  Ediel_sol  =         0.00000000
  ---------------------------------------------------
  free energy    TOTEN  =       -30.16033838 eV

  energy without entropy =      -30.15210195  energy(sigma->0) =      -30.15622016


--------------------------------------------------------------------------------------------------------




----------------------------------------- Iteration    1(  10)  ---------------------------------------


    POTLOK:  cpu time    0.0600: real time    0.0596
    SETDIJ:  cpu time    0.2070: real time    0.2076
    EDDIAG:  cpu time    1.2708: real time    1.2731
  RMM-DIIS:  cpu time    6.1301: real time    6.1439
    ORTHCH:  cpu time    0.0610: real time    0.0610
       DOS:  cpu time    0.0060: real time    0.0064
    CHARGE:  cpu time    0.5929: real time    0.5943
    MIXING:  cpu time    0.0020: real time    0.0017
    --------------------------------------------
      LOOP:  cpu time    8.3317: real time    8.3513

 eigenvalue-minimisations  : 17594
 total energy-change (2. order) : 0.7076591E-01  (-0.1672698E-01)
 number of electron      42.0000002 magnetization      -0.0803198
 augmentation part       21.2578533 magnetization      -0.0622925

 Broyden mixing:
  rms(total) = 0.29382E+00    rms(broyden)= 0.29369E+00
  rms(prec ) = 0.54606E+00
  weight for this iteration     100.00

 eigenvalues of (default mixing * dielectric matrix)
  average eigenvalue GAMMA=   0.6405
  0.1379  0.9247  0.9247  0.5748

 Free energy of the ion-electron system (eV)
  ---------------------------------------------------
  alpha Z        PSCENC =       288.64849481
  Ewald energy   TEWEN  =     -4317.05649328
  -Hartree energ DENC   =     -1604.19607963
  -exchange      EXHF   =         0.00000000
  -V(xc)+E(xc)   XCENC  =       185.29327334
  PAW double counting   =      5548.97175589    -5682.26536930
  entropy T*S    EENTRO =        -0.00908907
  eigenvalues    EBANDS =      -584.12551012
  atomic energy  EATOM  =      6134.64944490
  Solvation  Ediel_sol  =         0.00000000
  ---------------------------------------------------
  free energy    TOTEN  =       -30.08957247 eV

  energy without entropy =      -30.08048340  energy(sigma->0) =      -30.08502793


--------------------------------------------------------------------------------------------------------




----------------------------------------- Iteration    1(  11)  ---------------------------------------


    POTLOK:  cpu time    0.0590: real time    0.0589
    SETDIJ:  cpu time    0.2080: real time    0.2088
    EDDIAG:  cpu time    1.2668: real time    1.2695
  RMM-DIIS:  cpu time    5.0162: real time    5.0271
    ORTHCH:  cpu time    0.0620: real time    0.0614
       DOS:  cpu time    0.0060: real time    0.0064
    CHARGE:  cpu time    0.5929: real time    0.5938
    MIXING:  cpu time    0.0020: real time    0.0018
    --------------------------------------------
      LOOP:  cpu time    7.2139: real time    7.2317

 eigenvalue-minimisations  : 14012
 total energy-change (2. order) :-0.1772718E-01  (-0.6590623E-02)
 number of electron      42.0000002 magnetization      -0.0227147
 augmentation part       21.3185273 magnetization      -0.0116215

 Broyden mixing:
  rms(total) = 0.18236E+00    rms(broyden)= 0.18230E+00
  rms(prec ) = 0.30167E+00
  weight for this iteration     100.00

 eigenvalues of (default mixing * dielectric matrix)
  average eigenvalue GAMMA=   0.8539
  1.4546  1.4546  0.1368  0.6118  0.6118

 Free energy of the ion-electron system (eV)
  ---------------------------------------------------
  alpha Z        PSCENC =       288.64849481
  Ewald energy   TEWEN  =     -4317.05649328
  -Hartree energ DENC   =     -1600.32889388
  -exchange      EXHF   =         0.00000000
  -V(xc)+E(xc)   XCENC  =       185.43331562
  PAW double counting   =      5700.04539149    -5835.22218715
  entropy T*S    EENTRO =        -0.00646022
  eigenvalues    EBANDS =      -586.26991194
  atomic energy  EATOM  =      6134.64944490
  Solvation  Ediel_sol  =         0.00000000
  ---------------------------------------------------
  free energy    TOTEN  =       -30.10729965 eV

  energy without entropy =      -30.10083943  energy(sigma->0) =      -30.10406954


--------------------------------------------------------------------------------------------------------




----------------------------------------- Iteration    1(  12)  ---------------------------------------


    POTLOK:  cpu time    0.0570: real time    0.0572
    SETDIJ:  cpu time    0.2050: real time    0.2057
    EDDIAG:  cpu time    1.2648: real time    1.2673
  RMM-DIIS:  cpu time    5.0762: real time    5.0871
    ORTHCH:  cpu time    0.0610: real time    0.0612
       DOS:  cpu time    0.0060: real time    0.0062
    CHARGE:  cpu time    0.5939: real time    0.5937
    MIXING:  cpu time    0.0020: real time    0.0021
    --------------------------------------------
[...]
      3     -41.3571      1.00000
      4     -38.9787      1.00000
      5     -38.9618      1.00000
      6     -38.9403      1.00000
      7     -38.9030      1.00000
      8     -38.8839      1.00000
      9     -38.8799      1.00000
     10       1.0293      1.00000
     11       3.2902      1.00000
     12       3.9624      1.00000
     13       4.6663      1.00000
     14       5.3391      1.00000
     15       5.6162      1.00000
     16       5.7703      1.00000
     17       6.2553      1.00000
     18       6.8407      1.00000
     19       7.1433      1.00000
     20       7.6953      1.00000
     21       7.9000      1.00000
     22       8.1427      0.15316
     23       8.6287      0.00000
     24       8.8381      0.00000
     25       9.0934      0.00000
     26       9.5929      0.00000
     27       9.8265      0.00000
     28       9.9630      0.00000

 k-point   117 :      -0.4000    0.4000    0.2000
  band No.  band energies     occupation 
      1     -41.3647      1.00000
      2     -41.3616      1.00000
      3     -41.3584      1.00000
      4     -38.9712      1.00000
      5     -38.9614      1.00000
      6     -38.9331      1.00000
      7     -38.9108      1.00000
      8     -38.8882      1.00000
      9     -38.8825      1.00000
     10       0.8160      1.00000
     11       3.1857      1.00000
     12       4.0278      1.00000
     13       4.7074      1.00000
     14       5.2433      1.00000
     15       5.5839      1.00000
     16       5.9673      1.00000
     17       6.1267      1.00000
     18       6.8518      1.00000
     19       7.3424      1.00000
     20       7.7088      1.00000
     21       7.8615      1.00000
     22       8.1148      0.40763
     23       8.5521      0.00000
     24       9.0217      0.00000
     25       9.3696      0.00000
     26       9.5040      0.00000
     27      10.0755      0.00000
     28      10.2453      0.00000

 k-point   118 :      -0.3333    0.4000    0.2000
  band No.  band energies     occupation 
      1     -41.3651      1.00000
      2     -41.3605      1.00000
      3     -41.3594      1.00000
      4     -38.9740      1.00000
      5     -38.9625      1.00000
      6     -38.9256      1.00000
      7     -38.9181      1.00000
      8     -38.8848      1.00000
      9     -38.8825      1.00000
     10       0.9893      1.00000
     11       3.3378      1.00000
     12       3.7941      1.00000
     13       4.6446      1.00000
     14       5.2323      1.00000
     15       5.6117      1.00000
     16       5.8880      1.00000
     17       6.1400      1.00000
     18       6.8585      1.00000
     19       7.4150      1.00000
     20       7.5473      1.00000
     21       7.9840      0.99974
     22       8.0884      0.69684
     23       8.6430      0.00000
     24       8.9299      0.00000
     25       9.0853      0.00000
     26       9.5721      0.00000
     27      10.0255      0.00000
     28      10.1056      0.00000

 k-point   119 :      -0.3333    0.4667    0.2000
  band No.  band energies     occupation 
      1     -41.3654      1.00000
      2     -41.3616      1.00000
      3     -41.3582      1.00000
      4     -38.9771      1.00000
      5     -38.9634      1.00000
      6     -38.9331      1.00000
      7     -38.9102      1.00000
      8     -38.8830      1.00000
      9     -38.8808      1.00000
     10       1.0320      1.00000
     11       3.3703      1.00000
     12       3.9069      1.00000
     13       4.5664      1.00000
     14       5.3160      1.00000
     15       5.6527      1.00000
     16       5.8213      1.00000
     17       6.1258      1.00000
     18       6.7882      1.00000
     19       7.2647      1.00000
     20       7.6159      1.00000
     21       8.0069      0.99759
     22       8.1608      0.06251
     23       8.6249      0.00000
     24       8.8843      0.00000
     25       9.0024      0.00000
     26       9.6095      0.00000
     27       9.8803      0.00000
     28       9.9713      0.00000

 k-point   120 :      -0.2667    0.4667    0.2000
  band No.  band energies     occupation 
      1     -41.3654      1.00000
      2     -41.3605      1.00000
      3     -41.3593      1.00000
      4     -38.9768      1.00000
      5     -38.9637      1.00000
      6     -38.9256      1.00000
      7     -38.9177      1.00000
      8     -38.8831      1.00000
      9     -38.8806      1.00000
     10       1.0617      1.00000
     11       3.5884      1.00000
     12       3.6590      1.00000
     13       4.5265      1.00000
     14       5.2936      1.00000
     15       5.6419      1.00000
     16       5.9029      1.00000
     17       6.0159      1.00000
     18       6.8069      1.00000
     19       7.3911      1.00000
     20       7.5009      1.00000
     21       8.0881      0.69978
     22       8.1204      0.34765
     23       8.7378      0.00000
     24       8.7954      0.00000
     25       8.9357      0.00000
     26       9.6345      0.00000
     27       9.9276      0.00000
     28       9.9392      0.00000


--------------------------------------------------------------------------------------------------------


 soft charge-density along one line, spin component           1
         0         1         2         3         4         5         6         7         8         9
 total charge-density along one line
 
 soft charge-density along one line, spin component           2
         0         1         2         3         4         5         6         7         8         9
 total charge-density along one line
 
 pseudopotential strength for first ion, spin component:           1
-40.178   0.000   0.000   6.883  -0.000  -0.000  -0.000  -0.000
  0.000 -40.178   0.000  -0.000   6.883  -0.000  -0.000  -0.000
  0.000   0.000 -40.178  -0.000  -0.000   6.883  -0.000  -0.000
  6.883  -0.000  -0.000   5.461   0.000   0.000   0.000   0.000
 -0.000   6.883  -0.000   0.000   5.461   0.000  -0.000   0.000
 -0.000  -0.000   6.883   0.000   0.000   5.461   0.000  -0.000
 -0.000  -0.000  -0.000   0.000  -0.000   0.000  -1.113   0.000
 -0.000  -0.000  -0.000   0.000   0.000  -0.000   0.000  -1.113
 -0.000   0.000  -0.000   0.000  -0.000   0.000  -0.000   0.000
 -0.000  -0.000  -0.000  -0.000   0.000   0.000   0.000   0.000
 -0.000   0.000   0.000   0.000  -0.000  -0.000  -0.000  -0.000
 -0.000  -0.000  -0.000   0.000  -0.000   0.000  -1.627   0.000
 -0.000  -0.000  -0.000   0.000   0.000  -0.000   0.000  -1.627
 -0.000   0.000  -0.000   0.000  -0.000   0.000  -0.000   0.000
 -0.000  -0.000  -0.000  -0.000   0.000   0.000   0.000   0.000
 -0.000   0.000   0.000   0.000  -0.000  -0.000  -0.000  -0.000
  0.000   0.000   0.000   0.000   0.000   0.000  -0.000  -0.000
  0.000   0.000   0.000   0.000   0.000   0.000  -0.000  -0.000
 pseudopotential strength for first ion, spin component:           2
-42.310   0.000   0.000   7.862  -0.000  -0.000   0.000   0.000
  0.000 -42.310   0.000  -0.000   7.862  -0.000   0.000   0.000
  0.000   0.000 -42.310  -0.000  -0.000   7.862   0.000   0.000
  7.862  -0.000  -0.000   5.140   0.000   0.000  -0.000  -0.000
 -0.000   7.862  -0.000   0.000   5.140   0.000   0.000  -0.000
 -0.000  -0.000   7.862   0.000   0.000   5.140  -0.000   0.000
  0.000   0.000   0.000  -0.000   0.000  -0.000  -2.857   0.000
  0.000   0.000   0.000  -0.000  -0.000   0.000   0.000  -2.857
  0.000  -0.000   0.000  -0.000   0.000  -0.000  -0.000   0.000
  0.000   0.000   0.000   0.000  -0.000  -0.000   0.000   0.000
  0.000   0.000  -0.000  -0.000  -0.000   0.000  -0.000  -0.000
  0.000   0.000   0.000  -0.000  -0.000  -0.000  -3.346   0.000
  0.000   0.000   0.000  -0.000  -0.000  -0.000   0.000  -3.346
  0.000  -0.000   0.000  -0.000   0.000  -0.000  -0.000   0.000
  0.000   0.000   0.000  -0.000  -0.000  -0.000   0.000   0.000
  0.000   0.000  -0.000  -0.000  -0.000   0.000  -0.000  -0.000
 -0.000  -0.000  -0.000  -0.000  -0.000  -0.000  -0.000  -0.000
 -0.000  -0.000  -0.000  -0.000  -0.000  -0.000  -0.000  -0.000
 total augmentation occupancy for first ion, spin component:           1
  1.991   0.000   0.000  -0.031  -0.000   0.000   0.000   0.000  -0.000  -0.000   0.000   0.000  -0.000   0.000   0.000   0.000
  0.000   1.991   0.000   0.000  -0.031   0.000  -0.000   0.000  -0.000   0.000  -0.000   0.000   0.000  -0.000   0.000   0.000
  0.000   0.000   1.991  -0.000   0.000  -0.031  -0.000  -0.000  -0.000   0.000  -0.000  -0.000   0.000   0.000   0.000  -0.000
 -0.031  -0.000  -0.000   0.188   0.000   0.000   0.000   0.000  -0.000  -0.000  -0.000   0.000   0.000  -0.000   0.000   0.000
 -0.000  -0.031   0.000   0.000   0.188   0.000  -0.000  -0.000   0.000  -0.000  -0.000   0.000  -0.000   0.000   0.000  -0.000
  0.000   0.000  -0.031   0.000   0.000   0.188  -0.000  -0.000  -0.000   0.000   0.000  -0.000   0.000  -0.000  -0.000   0.000
  0.000  -0.000  -0.000   0.000  -0.000   0.000   1.088   0.000  -0.000  -0.000   0.000  -0.650   0.000   0.000  -0.000  -0.000
  0.000   0.000  -0.000  -0.000  -0.000  -0.000   0.000   1.088   0.000   0.000   0.000   0.000  -0.650   0.000   0.000  -0.000
  0.000  -0.000   0.000   0.000   0.000  -0.000   0.000   0.000   4.602   0.000   0.000   0.000  -0.000  -3.166   0.000   0.000
 -0.000   0.000   0.000  -0.000   0.000   0.000   0.000  -0.000  -0.000   1.088  -0.000  -0.000   0.000  -0.000  -0.650  -0.000
  0.000  -0.000   0.000   0.000   0.000  -0.000   0.000  -0.000   0.000   0.000   4.602   0.000  -0.000   0.000   0.000  -3.166
 -0.000   0.000  -0.000   0.000   0.000  -0.000  -0.650   0.000   0.000  -0.000  -0.000   1.332   0.000   0.000  -0.000  -0.000
 -0.000   0.000   0.000   0.000   0.000   0.000  -0.000  -0.650   0.000  -0.000  -0.000  -0.000   1.332   0.000   0.000  -0.000
  0.000  -0.000   0.000   0.000   0.000  -0.000   0.000  -0.000  -3.166   0.000   0.000  -0.000   0.000   2.860  -0.000   0.000
  0.000   0.000   0.000   0.000   0.000  -0.000   0.000   0.000   0.000  -0.650  -0.000   0.000   0.000  -0.000   1.332  -0.000
  0.000   0.000  -0.000   0.000   0.000   0.000   0.000   0.000   0.000   0.000  -3.166  -0.000   0.000   0.000  -0.000   2.860
  0.000   0.000   0.000   0.000   0.000   0.000  -0.000   0.000   0.000   0.000   0.000  -0.000   0.000  -0.000   0.000   0.000
  0.000   0.000   0.000   0.000   0.000   0.000   0.000   0.000  -0.000  -0.000  -0.000   0.000   0.000   0.000   0.000   0.000
 total augmentation occupancy for first ion, spin component:           2
  0.002   0.000   0.000   0.007   0.000   0.000   0.000   0.000  -0.000  -0.000  -0.000   0.000   0.000  -0.000   0.000  -0.000
  0.000   0.002   0.000   0.000   0.007   0.000  -0.000   0.000   0.000   0.000   0.000   0.000  -0.000  -0.000   0.000  -0.000
  0.000   0.000   0.002   0.000   0.000   0.007  -0.000  -0.000   0.000   0.000   0.000  -0.000   0.000   0.000   0.000  -0.000
  0.007   0.000   0.000  -0.020   0.000  -0.000   0.000   0.000   0.000   0.000   0.000   0.000  -0.000   0.000  -0.000   0.000
  0.000   0.007   0.000   0.000  -0.020   0.000   0.000   0.000   0.000   0.000   0.000  -0.000   0.000   0.000  -0.000   0.000
  0.000   0.000   0.007   0.000   0.000  -0.020   0.000   0.000   0.000  -0.000  -0.000  -0.000  -0.000   0.000  -0.000  -0.000
  0.000  -0.000  -0.000  -0.000   0.000  -0.000  -0.495  -0.000   0.000  -0.000  -0.000  -0.404   0.000   0.000   0.000  -0.000
  0.000   0.000  -0.000  -0.000   0.000   0.000   0.000  -0.495   0.000   0.000  -0.000   0.000  -0.404  -0.000   0.000  -0.000
 -0.000  -0.000   0.000   0.000   0.000   0.000  -0.000   0.000  -3.561   0.000   0.000   0.000  -0.000   1.729  -0.000   0.000
 -0.000   0.000   0.000   0.000   0.000  -0.000   0.000   0.000  -0.000  -0.495   0.000   0.000   0.000   0.000  -0.404  -0.000
 -0.000   0.000  -0.000  -0.000   0.000  -0.000   0.000   0.000   0.000   0.000  -3.561   0.000  -0.000   0.000   0.000   1.729
  0.000   0.000   0.000  -0.000  -0.000  -0.000  -0.404   0.000  -0.000   0.000   0.000   0.774  -0.000   0.000   0.000   0.000
  0.000   0.000   0.000   0.000   0.000  -0.000   0.000  -0.404  -0.000   0.000  -0.000   0.000   0.774  -0.000   0.000  -0.000
  0.000   0.000  -0.000  -0.000   0.000   0.000  -0.000  -0.000   1.729  -0.000   0.000   0.000  -0.000  -0.856   0.000   0.000
  0.000   0.000   0.000  -0.000  -0.000   0.000   0.000   0.000   0.000  -0.404  -0.000  -0.000  -0.000  -0.000   0.774   0.000
  0.000   0.000  -0.000  -0.000   0.000  -0.000   0.000   0.000   0.000  -0.000   1.729  -0.000  -0.000   0.000  -0.000  -0.856
 -0.000  -0.000  -0.000   0.000   0.000   0.000   0.000  -0.000  -0.000   0.000   0.000   0.000  -0.000  -0.000  -0.000   0.000
  0.000   0.000   0.000   0.000   0.000   0.000   0.000   0.000  -0.000  -0.000   0.000   0.000  -0.000   0.000   0.000   0.000


------------------------ aborting loop because EDIFF is reached ----------------------------------------


 


 total charge     
 
# of ion     s       p       d       tot
----------------------------------------
  1        0.376   6.325   5.041  11.742
  2        0.327   6.320   5.153  11.799
  3        0.327   6.320   5.153  11.799
  4        1.124   1.456   0.208   2.788
------------------------------------------------
tot        2.153  20.420  15.555  38.128
 


 magnetization (x)
 
# of ion     s       p       d       tot
----------------------------------------
  1       -0.041  -0.036  -2.917  -2.995
  2        0.015   0.017   1.491   1.523
  3        0.015   0.017   1.491   1.523
  4       -0.034  -0.035   0.021  -0.048
------------------------------------------------
tot       -0.046  -0.038   0.086   0.002
 
    CHARGE:  cpu time    0.5909: real time    0.5926
    FORLOC:  cpu time    0.0030: real time    0.0032
    FORNL :  cpu time    1.9797: real time    1.9834
    STRESS:  cpu time    5.3442: real time    5.3548
    FORCOR:  cpu time    0.0600: real time    0.0610
    FORHAR:  cpu time    0.0080: real time    0.0075
    MIXING:  cpu time    0.0020: real time    0.0023
    OFIELD:  cpu time    0.0000: real time    0.0000

  FORCE on cell =-STRESS in cart. coord.  units (eV):
  Direction    XX          YY          ZZ          XY          YZ          ZX
  --------------------------------------------------------------------------------------
  Alpha Z   288.64849   288.64849   288.64849
  Ewald   -1439.01994 -1439.01994 -1439.01994    -0.00000    -0.00000    -0.00000
  Hartree   533.32884   533.32884   533.32884     0.00000     0.00000     0.00000
  E(xc)    -245.02851  -245.02851  -245.02851     0.00001     0.00001     0.00001
  Local     229.95321   229.95321   229.95321     0.00015     0.00015     0.00015
  n-local  -105.76333  -104.71386  -105.70201    -1.89776     1.62149    -1.38268
  augment   297.90677   297.90677   297.90676    -0.00012    -0.00012    -0.00012
  Kinetic   440.15500   441.13890   437.70520    -0.63816    -0.06806     0.14191
  Fock        0.00000     0.00000     0.00000     0.00000     0.00000     0.00000
  -------------------------------------------------------------------------------------
  Total       0.06216     0.06216     0.06216     0.00000     0.00000     0.00000
  in kB       2.02653     2.02653     2.02653     0.00000     0.00000     0.00000
  external pressure =        2.03 kB  Pullay stress =        0.00 kB


 VOLUME and BASIS-vectors are now :
 -----------------------------------------------------------------------------
  energy-cutoff  :      500.00
  volume of cell :       49.14
      direct lattice vectors                 reciprocal lattice vectors
     0.000000000  2.907211698  2.907211698    -0.171986099  0.171986099  0.171986099
     2.907211698  0.000000000  2.907211698     0.171986099 -0.171986099  0.171986099
     2.907211698  2.907211698  0.000000000     0.171986099  0.171986099 -0.171986099

  length of vectors
     4.111418212  4.111418212  4.111418212     0.297888662  0.297888662  0.297888662


 FORCES acting on ions
    electron-ion (+dipol)            ewald-force                    non-local-force                 convergence-correction
 -----------------------------------------------------------------------------------------------
   -.396E-12 -.383E-12 -.377E-12   0.334E-14 -.562E-14 0.542E-14   0.529E-22 0.926E-22 0.596E-22   -.431E-08 -.431E-08 -.431E-08
   0.321E-06 0.321E-06 0.367E-06   -.122E-13 0.101E-14 -.351E-13   0.347E-17 0.173E-16 0.121E-16   0.475E-07 0.475E-07 0.475E-07
   -.321E-06 -.321E-06 -.367E-06   0.107E-13 0.574E-14 0.279E-13   0.347E-16 0.243E-16 0.260E-16   -.486E-07 -.486E-07 -.486E-07
   0.234E-12 0.101E-12 -.370E-12   0.122E-14 0.101E-14 0.134E-14   -.331E-23 -.496E-23 0.000E+00   0.165E-09 0.165E-09 0.165E-09
 -----------------------------------------------------------------------------------------------
   0.149E-11 -.169E-12 -.246E-12   0.301E-14 0.214E-14 -.450E-15   0.382E-16 0.416E-16 0.382E-16   -.526E-08 -.526E-08 -.526E-08
 
 
 POSITION                                       TOTAL-FORCE (eV/Angst)
 -----------------------------------------------------------------------------------
      0.00000      0.00000      0.00000        -0.000000      0.000000      0.000000
      1.45361      1.45361      1.45361         0.000000     -0.000000     -0.000000
      4.36082      4.36082      4.36082        -0.000000      0.000000     -0.000000
      2.90721      2.90721      2.90721        -0.000000      0.000000      0.000000
 -----------------------------------------------------------------------------------
    total drift:                               -0.000000     -0.000000     -0.000000


--------------------------------------------------------------------------------------------------------



  FREE ENERGIE OF THE ION-ELECTRON SYSTEM (eV)
  ---------------------------------------------------
  free  energy   TOTEN  =       -30.12222097 eV

  energy  without entropy=      -30.11711155  energy(sigma->0) =      -30.11966626
 


--------------------------------------------------------------------------------------------------------


    POTLOK:  cpu time    0.2640: real time    0.2645


--------------------------------------------------------------------------------------------------------


     LOOP+:  cpu time  148.6804: real time  149.0845
    4ORBIT:  cpu time    0.0000: real time    0.0000
 


 total charge     
 
# of ion     s       p       d       tot
----------------------------------------
  1        0.376   6.325   5.041  11.742
  2        0.327   6.320   5.153  11.799
  3        0.327   6.320   5.153  11.799
  4        1.124   1.456   0.208   2.788
------------------------------------------------
tot        2.153  20.420  15.555  38.128
 


 magnetization (x)
 
# of ion     s       p       d       tot
----------------------------------------
  1       -0.041  -0.036  -2.917  -2.995
  2        0.015   0.017   1.491   1.523
  3        0.015   0.017   1.491   1.523
  4       -0.034  -0.035   0.021  -0.048
------------------------------------------------
tot       -0.046  -0.038   0.086   0.002
 

 total amount of memory used by VASP on root node   147352. kBytes
========================================================================

   base      :      30000. kBytes
   nonl-proj :      66021. kBytes
   fftplans  :       8118. kBytes
   grid      :       7070. kBytes
   one-center:        124. kBytes
   wavefun   :      36019. kBytes
 
  
  
 General timing and accounting informations for this job:
 ========================================================
  
                  Total CPU time used (sec):      151.094
                            User time (sec):      148.472
                          System time (sec):        2.622
                         Elapsed time (sec):      151.891
  
                   Maximum memory used (kb):      309244.
                   Average memory used (kb):           0.
  
                          Minor page faults:       151514
                          Major page faults:       626370
                 Voluntary context switches:         1181
