 vasp.5.4.1 05Feb16 (build Aug 30 2019 09:58:18) complex                        
  
 executed on           IFC91_ompi date 2021.10.03  23:41:39
 running on    4 total cores
 distrk:  each k-point on    4 cores,    1 groups
 distr:  one band on NCORES_PER_BAND=   1 cores,    4 groups


--------------------------------------------------------------------------------------------------------


 INCAR:
 POTCAR:    PAW_PBE Mn_pv 02Aug2007               
 POTCAR:    PAW_PBE V_pv 07Sep2000                
 POTCAR:    PAW_PBE As 22Sep2009                  
 POTCAR:    PAW_PBE Mn_pv 02Aug2007               
   VRHFIN =Mn: 3p4s3d                                                           
   LEXCH  = PE                                                                  
   EATOM  =  2025.2664 eV,  148.8529 Ry                                         
                                                                                
   TITEL  = PAW_PBE Mn_pv 02Aug2007                                             
   LULTRA =        F    use ultrasoft PP ?                                      
   IUNSCR =        1    unscreen: 0-lin 1-nonlin 2-no                           
   RPACOR =    2.080    partial core radius                                     
   POMASS =   54.938; ZVAL   =   13.000    mass and valenz                      
   RCORE  =    2.300    outmost cutoff radius                                   
   RWIGS  =    2.500; RWIGS  =    1.323    wigner-seitz radius (au A)           
   ENMAX  =  269.864; ENMIN  =  202.398 eV                                      
   ICORE  =        3    local potential                                         
   LCOR   =        T    correct aug charges                                     
   LPAW   =        T    paw PP                                                  
   EAUG   =  569.085                                                            
   DEXC   =    0.000                                                            
   RMAX   =    2.343    core radius for proj-oper                               
   RAUG   =    1.300    factor for augmentation sphere                          
   RDEP   =    2.338    radius for radial grids                                 
   RDEPT  =    1.798    core radius for aug-charge                              
                                                                                
   Atomic configuration                                                         
    8 entries                                                                   
     n  l   j            E        occ.                                          
     1  0  0.50     -6424.8287   2.0000                                         
     2  0  0.50      -739.1154   2.0000                                         
     2  1  1.50      -625.3949   6.0000                                         
     3  0  0.50       -81.6100   2.0000                                         
     3  1  1.50       -50.4667   6.0000                                         
     3  2  2.50        -3.3745   6.0000                                         
     4  0  0.50        -4.1331   1.0000                                         
     4  3  2.50        -1.3606   0.0000                                         
   Description                                                                  
     l       E           TYP  RCUT    TYP  RCUT                                 
     1    -50.4666628     23  2.000                                             
     1     -1.3605826     23  2.000                                             
     2     -3.3744729     23  2.300                                             
     2     -4.7350555     23  2.300                                             
     0     -4.1331431     23  2.300                                             
     0      7.6656591     23  2.300                                             
     3      9.5240782     23  2.300                                             
  local pseudopotential read in
  partial core-charges read in
  partial kinetic energy density read in
  atomic valenz-charges read in
  non local Contribution for L=           1  read in
    real space projection operators read in
  non local Contribution for L=           1  read in
    real space projection operators read in
  non local Contribution for L=           2  read in
    real space projection operators read in
  non local Contribution for L=           2  read in
    real space projection operators read in
  non local Contribution for L=           0  read in
    real space projection operators read in
  non local Contribution for L=           0  read in
    real space projection operators read in
    PAW grid and wavefunctions read in
 
   number of l-projection  operators is LMAX  =           6
   number of lm-projection operators is LMMAX =          18
 
 POTCAR:    PAW_PBE V_pv 07Sep2000                
   VRHFIN =V: p6 d4 s1                                                          
   LEXCH  = PE                                                                  
   EATOM  =  1321.6206 eV,   97.1364 Ry                                         
                                                                                
   TITEL  = PAW_PBE V_pv 07Sep2000                                              
   LULTRA =        F    use ultrasoft PP ?                                      
   IUNSCR =        1    unscreen: 0-lin 1-nonlin 2-no                           
   RPACOR =    1.700    partial core radius                                     
   POMASS =   50.941; ZVAL   =   11.000    mass and valenz                      
   RCORE  =    2.300    outmost cutoff radius                                   
   RWIGS  =    2.300; RWIGS  =    1.217    wigner-seitz radius (au A)           
   ENMAX  =  263.673; ENMIN  =  197.755 eV                                      
   RCLOC  =    1.779    cutoff for local pot                                    
   LCOR   =        T    correct aug charges                                     
   LPAW   =        T    paw PP                                                  
   EAUG   =  598.473                                                            
   DEXC   =    0.000                                                            
   RMAX   =    2.359    core radius for proj-oper                               
   RAUG   =    1.300    factor for augmentation sphere                          
   RDEP   =    2.430    radius for radial grids                                 
   RDEPT  =    1.700    core radius for aug-charge                              
                                                                                
   Atomic configuration                                                         
    8 entries                                                                   
     n  l   j            E        occ.                                          
     1  0  0.50     -5360.7193   2.0000                                         
     2  0  0.50      -598.4546   2.0000                                         
     2  1  1.50      -499.0155   6.0000                                         
     3  0  0.50       -66.5711   2.0000                                         
     3  1  1.50       -40.5282   6.0000                                         
     3  2  2.50        -2.4291   4.0000                                         
     4  0  0.50        -3.8743   1.0000                                         
     4  3  2.50        -1.3606   0.0000                                         
   Description                                                                  
     l       E           TYP  RCUT    TYP  RCUT                                 
     1    -40.5282431     23  2.000                                             
     1      5.4423304     23  2.000                                             
     2     -2.4290905     23  2.300                                             
     2     -1.0472488     23  2.300                                             
     0     -3.8742754     23  2.300                                             
     0     27.2116520     23  2.300                                             
  local pseudopotential read in
  partial core-charges read in
  partial kinetic energy density read in
  atomic valenz-charges read in
  non local Contribution for L=           1  read in
    real space projection operators read in
  non local Contribution for L=           1  read in
    real space projection operators read in
  non local Contribution for L=           2  read in
    real space projection operators read in
  non local Contribution for L=           2  read in
    real space projection operators read in
  non local Contribution for L=           0  read in
    real space projection operators read in
  non local Contribution for L=           0  read in
    real space projection operators read in
    PAW grid and wavefunctions read in
 
   number of l-projection  operators is LMAX  =           6
   number of lm-projection operators is LMMAX =          18
 
 POTCAR:    PAW_PBE As 22Sep2009                  
   VRHFIN =As: s2p3                                                             
   LEXCH  = PE                                                                  
   EATOM  =   170.1867 eV,   12.5084 Ry                                         
                                                                                
   TITEL  = PAW_PBE As 22Sep2009                                                
   LULTRA =        F    use ultrasoft PP ?                                      
   IUNSCR =        1    unscreen: 0-lin 1-nonlin 2-no                           
   RPACOR =    1.900    partial core radius                                     
   POMASS =   74.922; ZVAL   =    5.000    mass and valenz                      
   RCORE  =    2.100    outmost cutoff radius                                   
   RWIGS  =    2.300; RWIGS  =    1.217    wigner-seitz radius (au A)           
   ENMAX  =  208.702; ENMIN  =  156.526 eV                                      
   ICORE  =        3    local potential                                         
   LCOR   =        T    correct aug charges                                     
   LPAW   =        T    paw PP                                                  
   EAUG   =  462.758                                                            
   DEXC   =    0.000                                                            
   RMAX   =    2.144    core radius for proj-oper                               
   RAUG   =    1.300    factor for augmentation sphere                          
   RDEP   =    2.140    radius for radial grids                                 
   RDEPT  =    1.956    core radius for aug-charge                              
                                                                                
   Atomic configuration                                                         
   10 entries                                                                   
     n  l   j            E        occ.                                          
     1  0  0.50    -11718.0418   2.0000                                         
     2  0  0.50     -1486.5454   2.0000                                         
     2  1  1.50     -1303.3889   6.0000                                         
     3  0  0.50      -190.2849   2.0000                                         
     3  1  1.50      -133.6555   6.0000                                         
     3  2  2.50       -40.6443  10.0000                                         
     4  0  0.50       -14.4936   2.0000                                         
     4  1  0.50        -5.1947   3.0000                                         
     4  2  1.50        -5.4423   0.0000                                         
     4  3  2.50        -5.4423   0.0000                                         
   Description                                                                  
     l       E           TYP  RCUT    TYP  RCUT                                 
     0    -14.4935570     23  2.100                                             
     0    -11.9212055     23  2.100                                             
     1     -5.1947127     23  2.100                                             
     1     27.2116520     23  2.100                                             
     2     -5.4423304     23  2.100                                             
     3     -1.3605826      7  2.100                                             
  local pseudopotential read in
  partial core-charges read in
  partial kinetic energy density read in
  atomic valenz-charges read in
  non local Contribution for L=           0  read in
    real space projection operators read in
  non local Contribution for L=           0  read in
    real space projection operators read in
  non local Contribution for L=           1  read in
    real space projection operators read in
  non local Contribution for L=           1  read in
    real space projection operators read in
  non local Contribution for L=           2  read in
    real space projection operators read in
    PAW grid and wavefunctions read in
 
   number of l-projection  operators is LMAX  =           5
   number of lm-projection operators is LMMAX =          13
 
  PAW_PBE Mn_pv 02Aug2007               :
 energy of atom  1       EATOM=-2025.2664
 kinetic energy error for atom=    0.0062 (will be added to EATOM!!)
  PAW_PBE V_pv 07Sep2000                :
 energy of atom  2       EATOM=-1321.6206
 kinetic energy error for atom=    0.0058 (will be added to EATOM!!)
  PAW_PBE As 22Sep2009                  :
 energy of atom  3       EATOM= -170.1867
 kinetic energy error for atom=    0.0005 (will be added to EATOM!!)
 
 
 POSCAR: Mn V As                                 
  positions in direct lattice
  velocities in cartesian coordinates
 exchange correlation table for  LEXCH =        8
   RHO(1)=    0.500       N(1)  =     2000
   RHO(2)=  100.500       N(2)  =     4000
 


--------------------------------------------------------------------------------------------------------


 ion  position               nearest neighbor table
   1  0.000  0.000  0.000-   3 2.55   3 2.55   3 2.55   2 2.55   2 2.55   2 2.55   3 2.55   2 2.55
                             4 2.94   4 2.94   4 2.94   4 2.94   4 2.94   4 2.94
   2  0.250  0.250  0.250-   1 2.55   1 2.55   1 2.55   4 2.55   4 2.55   4 2.55   4 2.55   1 2.55
                             3 2.94   3 2.94   3 2.94   3 2.94   3 2.94   3 2.94
   3  0.750  0.750  0.750-   4 2.55   4 2.55   4 2.55   1 2.55   1 2.55   1 2.55   4 2.55   1 2.55
                             2 2.94   2 2.94   2 2.94   2 2.94   2 2.94   2 2.94
   4  0.500  0.500  0.500-   2 2.55   2 2.55   2 2.55   3 2.55   3 2.55   3 2.55   3 2.55   2 2.55
                             1 2.94   1 2.94   1 2.94   1 2.94   1 2.94   1 2.94
 
  LATTYP: Found a face centered cubic cell.
 ALAT       =     5.8899856011
  
  Lattice vectors:
  
 A1 = (   0.0000000000,   2.9449928006,   2.9449928006)
 A2 = (   2.9449928006,   0.0000000000,   2.9449928006)
 A3 = (   2.9449928006,   2.9449928006,   0.0000000000)


Analysis of symmetry for initial positions (statically):
=====================================================================
 Subroutine PRICEL returns:
 Original cell was already a primitive cell.
 

 Routine SETGRP: Setting up the symmetry group for a 
 face centered cubic supercell.


 Subroutine GETGRP returns: Found 24 space group operations
 (whereof 24 operations were pure point group operations)
 out of a pool of 48 trial point group operations.


The static configuration has the point symmetry T_d .


Analysis of symmetry for dynamics (positions and initial velocities):
=====================================================================
 Subroutine PRICEL returns:
 Original cell was already a primitive cell.
 

 Routine SETGRP: Setting up the symmetry group for a 
 face centered cubic supercell.


 Subroutine GETGRP returns: Found 24 space group operations
 (whereof 24 operations were pure point group operations)
 out of a pool of 48 trial point group operations.


The dynamic configuration has the point symmetry T_d .


Analysis of structural, dynamic, and magnetic symmetry:
=====================================================================
 Subroutine PRICEL returns:
 Original cell was already a primitive cell.
 

 Routine SETGRP: Setting up the symmetry group for a 
 face centered cubic supercell.


 Subroutine GETGRP returns: Found 24 space group operations
 (whereof 24 operations were pure point group operations)
 out of a pool of 48 trial point group operations.


The magnetic configuration has the point symmetry T_d .


 Subroutine INISYM returns: Found 24 space group operations
 (whereof 24 operations are pure point group operations),
 and found     1 'primitive' translations

 
 
 KPOINTS: Automatic Mesh # Generates Automatically

Automatic generation of k-mesh.
Space group operators:
 irot       det(A)        alpha          n_x          n_y          n_z        tau_x        tau_y        tau_z
    1     1.000000     0.000000     1.000000     0.000000     0.000000     0.000000     0.000000     0.000000
    2     1.000000   120.000000    -0.577350    -0.577350    -0.577350     0.000000     0.000000     0.000000
    3     1.000000   120.000000     0.577350     0.577350     0.577350     0.000000     0.000000     0.000000
    4    -1.000000    90.000000     0.000000     0.000000    -1.000000     0.000000     0.000000     0.000000
    5    -1.000000   180.000000     0.000000     0.707107     0.707107     0.000000     0.000000     0.000000
    6    -1.000000    90.000000     0.000000     1.000000     0.000000     0.000000     0.000000     0.000000
    7     1.000000   180.000000     0.000000     0.000000     1.000000     0.000000     0.000000     0.000000
    8     1.000000   120.000000    -0.577350     0.577350     0.577350     0.000000     0.000000     0.000000
    9     1.000000   120.000000    -0.577350     0.577350    -0.577350     0.000000     0.000000     0.000000
   10    -1.000000    90.000000     0.000000     0.000000     1.000000     0.000000     0.000000     0.000000
   11    -1.000000    90.000000    -1.000000     0.000000     0.000000     0.000000     0.000000     0.000000
   12    -1.000000   180.000000     0.707107     0.000000     0.707107     0.000000     0.000000     0.000000
   13     1.000000   120.000000     0.577350    -0.577350     0.577350     0.000000     0.000000     0.000000
   14     1.000000   120.000000    -0.577350    -0.577350     0.577350     0.000000     0.000000     0.000000
   15     1.000000   180.000000     1.000000     0.000000     0.000000     0.000000     0.000000     0.000000
   16    -1.000000    90.000000     0.000000    -1.000000     0.000000     0.000000     0.000000     0.000000
   17    -1.000000   180.000000     0.707107     0.707107     0.000000     0.000000     0.000000     0.000000
   18    -1.000000    90.000000     1.000000     0.000000     0.000000     0.000000     0.000000     0.000000
   19     1.000000   120.000000     0.577350    -0.577350    -0.577350     0.000000     0.000000     0.000000
   20     1.000000   180.000000     0.000000     1.000000     0.000000     0.000000     0.000000     0.000000
   21     1.000000   120.000000     0.577350     0.577350    -0.577350     0.000000     0.000000     0.000000
   22    -1.000000   180.000000     0.000000    -0.707107     0.707107     0.000000     0.000000     0.000000
   23    -1.000000   180.000000     0.707107    -0.707107     0.000000     0.000000     0.000000     0.000000
   24    -1.000000   180.000000     0.707107     0.000000    -0.707107     0.000000     0.000000     0.000000
 
 Subroutine IBZKPT returns following result:
 ===========================================
 
 Found    120 irreducible k-points:
 
 Following reciprocal coordinates:
            Coordinates               Weight
  0.000000  0.000000  0.000000      1.000000
  0.066667  0.000000  0.000000      8.000000
  0.133333  0.000000  0.000000      8.000000
  0.200000  0.000000  0.000000      8.000000
  0.266667  0.000000  0.000000      8.000000
  0.333333  0.000000  0.000000      8.000000
  0.400000  0.000000  0.000000      8.000000
  0.466667  0.000000  0.000000      8.000000
  0.066667  0.066667  0.000000      6.000000
  0.133333  0.066667  0.000000     24.000000
  0.200000  0.066667  0.000000     24.000000
  0.266667  0.066667  0.000000     24.000000
  0.333333  0.066667  0.000000     24.000000
  0.400000  0.066667  0.000000     24.000000
  0.466667  0.066667  0.000000     24.000000
 -0.466667  0.066667  0.000000     24.000000
 -0.400000  0.066667  0.000000     24.000000
 -0.333333  0.066667  0.000000     24.000000
 -0.266667  0.066667  0.000000     24.000000
 -0.200000  0.066667  0.000000     24.000000
 -0.133333  0.066667  0.000000     24.000000
 -0.066667  0.066667  0.000000     12.000000
  0.133333  0.133333  0.000000      6.000000
  0.200000  0.133333  0.000000     24.000000
  0.266667  0.133333  0.000000     24.000000
  0.333333  0.133333  0.000000     24.000000
  0.400000  0.133333  0.000000     24.000000
  0.466667  0.133333  0.000000     24.000000
 -0.466667  0.133333  0.000000     24.000000
 -0.400000  0.133333  0.000000     24.000000
 -0.333333  0.133333  0.000000     24.000000
 -0.266667  0.133333  0.000000     24.000000
 -0.200000  0.133333  0.000000     24.000000
 -0.133333  0.133333  0.000000     12.000000
  0.200000  0.200000  0.000000      6.000000
  0.266667  0.200000  0.000000     24.000000
  0.333333  0.200000  0.000000     24.000000
  0.400000  0.200000  0.000000     24.000000
  0.466667  0.200000  0.000000     24.000000
 -0.466667  0.200000  0.000000     24.000000
 -0.400000  0.200000  0.000000     24.000000
 -0.333333  0.200000  0.000000     24.000000
 -0.266667  0.200000  0.000000     24.000000
 -0.200000  0.200000  0.000000     12.000000
  0.266667  0.266667  0.000000      6.000000
  0.333333  0.266667  0.000000     24.000000
  0.400000  0.266667  0.000000     24.000000
  0.466667  0.266667  0.000000     24.000000
 -0.466667  0.266667  0.000000     24.000000
 -0.400000  0.266667  0.000000     24.000000
 -0.333333  0.266667  0.000000     24.000000
 -0.266667  0.266667  0.000000     12.000000
  0.333333  0.333333  0.000000      6.000000
  0.400000  0.333333  0.000000     24.000000
  0.466667  0.333333  0.000000     24.000000
 -0.466667  0.333333  0.000000     24.000000
 -0.400000  0.333333  0.000000     24.000000
 -0.333333  0.333333  0.000000     12.000000
  0.400000  0.400000  0.000000      6.000000
  0.466667  0.400000  0.000000     24.000000
 -0.466667  0.400000  0.000000     24.000000
 -0.400000  0.400000  0.000000     12.000000
  0.466667  0.466667  0.000000      6.000000
 -0.466667  0.466667  0.000000     12.000000
  0.200000  0.133333  0.066667     24.000000
  0.266667  0.133333  0.066667     48.000000
  0.333333  0.133333  0.066667     48.000000
  0.400000  0.133333  0.066667     48.000000
  0.466667  0.133333  0.066667     48.000000
 -0.466667  0.133333  0.066667     48.000000
  0.266667  0.200000  0.066667     24.000000
  0.333333  0.200000  0.066667     48.000000
  0.400000  0.200000  0.066667     48.000000
  0.466667  0.200000  0.066667     48.000000
 -0.466667  0.200000  0.066667     48.000000
 -0.400000  0.200000  0.066667     48.000000
 -0.333333  0.200000  0.066667     48.000000
 -0.266667  0.200000  0.066667     48.000000
 -0.200000  0.200000  0.066667     48.000000
 -0.133333  0.200000  0.066667     24.000000
  0.333333  0.266667  0.066667     24.000000
  0.400000  0.266667  0.066667     48.000000
  0.466667  0.266667  0.066667     48.000000
 -0.466667  0.266667  0.066667     48.000000
 -0.400000  0.266667  0.066667     48.000000
 -0.333333  0.266667  0.066667     48.000000
 -0.266667  0.266667  0.066667     48.000000
 -0.200000  0.266667  0.066667     24.000000
  0.400000  0.333333  0.066667     24.000000
  0.466667  0.333333  0.066667     48.000000
 -0.466667  0.333333  0.066667     48.000000
 -0.400000  0.333333  0.066667     48.000000
 -0.333333  0.333333  0.066667     48.000000
 -0.266667  0.333333  0.066667     24.000000
  0.466667  0.400000  0.066667     24.000000
 -0.466667  0.400000  0.066667     48.000000
 -0.400000  0.400000  0.066667     48.000000
 -0.333333  0.400000  0.066667     24.000000
 -0.466667  0.466667  0.066667     24.000000
 -0.400000  0.466667  0.066667     24.000000
  0.400000  0.266667  0.133333     24.000000
  0.466667  0.266667  0.133333     48.000000
 -0.466667  0.266667  0.133333     48.000000
 -0.400000  0.266667  0.133333     48.000000
  0.466667  0.333333  0.133333     24.000000
 -0.466667  0.333333  0.133333     48.000000
 -0.400000  0.333333  0.133333     48.000000
 -0.333333  0.333333  0.133333     48.000000
 -0.266667  0.333333  0.133333     48.000000
 -0.200000  0.333333  0.133333     24.000000
 -0.466667  0.400000  0.133333     24.000000
 -0.400000  0.400000  0.133333     48.000000
 -0.333333  0.400000  0.133333     48.000000
 -0.266667  0.400000  0.133333     24.000000
 -0.400000  0.466667  0.133333     24.000000
 -0.333333  0.466667  0.133333     24.000000
 -0.400000  0.400000  0.200000     24.000000
 -0.333333  0.400000  0.200000     48.000000
 -0.333333  0.466667  0.200000     24.000000
 -0.266667  0.466667  0.200000     24.000000
 
 Following cartesian coordinates:
            Coordinates               Weight
  0.000000  0.000000  0.000000      1.000000
 -0.062253  0.062253  0.062253      8.000000
 -0.124505  0.124505  0.124505      8.000000
 -0.186758  0.186758  0.186758      8.000000
 -0.249010  0.249010  0.249010      8.000000
 -0.311263  0.311263  0.311263      8.000000
 -0.373515  0.373515  0.373515      8.000000
 -0.435768  0.435768  0.435768      8.000000
  0.000000  0.000000  0.124505      6.000000
 -0.062253  0.062253  0.186758     24.000000
 -0.124505  0.124505  0.249010     24.000000
 -0.186758  0.186758  0.311263     24.000000
 -0.249010  0.249010  0.373515     24.000000
 -0.311263  0.311263  0.435768     24.000000
 -0.373515  0.373515  0.498020     24.000000
  0.498020 -0.498020 -0.373515     24.000000
  0.435768 -0.435768 -0.311263     24.000000
  0.373515 -0.373515 -0.249010     24.000000
  0.311263 -0.311263 -0.186758     24.000000
  0.249010 -0.249010 -0.124505     24.000000
  0.186758 -0.186758 -0.062253     24.000000
  0.124505 -0.124505  0.000000     12.000000
  0.000000  0.000000  0.249010      6.000000
 -0.062253  0.062253  0.311263     24.000000
 -0.124505  0.124505  0.373515     24.000000
 -0.186758  0.186758  0.435768     24.000000
 -0.249010  0.249010  0.498020     24.000000
 -0.311263  0.311263  0.560273     24.000000
  0.560273 -0.560273 -0.311263     24.000000
  0.498020 -0.498020 -0.249010     24.000000
  0.435768 -0.435768 -0.186758     24.000000
  0.373515 -0.373515 -0.124505     24.000000
  0.311263 -0.311263 -0.062253     24.000000
  0.249010 -0.249010  0.000000     12.000000
  0.000000  0.000000  0.373515      6.000000
 -0.062253  0.062253  0.435768     24.000000
 -0.124505  0.124505  0.498020     24.000000
 -0.186758  0.186758  0.560273     24.000000
 -0.249010  0.249010  0.622526     24.000000
  0.622526 -0.622526 -0.249010     24.000000
  0.560273 -0.560273 -0.186758     24.000000
  0.498020 -0.498020 -0.124505     24.000000
  0.435768 -0.435768 -0.062253     24.000000
  0.373515 -0.373515  0.000000     12.000000
  0.000000  0.000000  0.498020      6.000000
 -0.062253  0.062253  0.560273     24.000000
 -0.124505  0.124505  0.622526     24.000000
 -0.186758  0.186758  0.684778     24.000000
  0.684778 -0.684778 -0.186758     24.000000
  0.622526 -0.622526 -0.124505     24.000000
  0.560273 -0.560273 -0.062253     24.000000
  0.498020 -0.498020  0.000000     12.000000
  0.000000  0.000000  0.622526      6.000000
 -0.062253  0.062253  0.684778     24.000000
 -0.124505  0.124505  0.747031     24.000000
  0.747031 -0.747031 -0.124505     24.000000
  0.684778 -0.684778 -0.062253     24.000000
  0.622526 -0.622526  0.000000     12.000000
  0.000000  0.000000  0.747031      6.000000
 -0.062253  0.062253  0.809283     24.000000
  0.809283 -0.809283 -0.062253     24.000000
  0.747031 -0.747031  0.000000     12.000000
  0.000000  0.000000  0.871536      6.000000
  0.871536 -0.871536  0.000000     12.000000
 -0.000000  0.124505  0.249010     24.000000
 -0.062253  0.186758  0.311263     48.000000
 -0.124505  0.249010  0.373515     48.000000
 -0.186758  0.311263  0.435768     48.000000
 -0.249010  0.373515  0.498020     48.000000
  0.622526 -0.498020 -0.373515     48.000000
  0.000000  0.124505  0.373515     24.000000
 -0.062253  0.186758  0.435768     48.000000
 -0.124505  0.249010  0.498020     48.000000
 -0.186758  0.311263  0.560273     48.000000
  0.684778 -0.560273 -0.311263     48.000000
  0.622526 -0.498020 -0.249010     48.000000
  0.560273 -0.435768 -0.186758     48.000000
  0.498020 -0.373515 -0.124505     48.000000
  0.435768 -0.311263 -0.062253     48.000000
  0.373515 -0.249010  0.000000     24.000000
  0.000000  0.124505  0.498020     24.000000
 -0.062253  0.186758  0.560273     48.000000
 -0.124505  0.249010  0.622526     48.000000
  0.747031 -0.622526 -0.249010     48.000000
  0.684778 -0.560273 -0.186758     48.000000
  0.622526 -0.498020 -0.124505     48.000000
  0.560273 -0.435768 -0.062253     48.000000
  0.498020 -0.373515 -0.000000     24.000000
 -0.000000  0.124505  0.622526     24.000000
 -0.062253  0.186758  0.684778     48.000000
  0.809283 -0.684778 -0.186758     48.000000
  0.747031 -0.622526 -0.124505     48.000000
  0.684778 -0.560273 -0.062253     48.000000
  0.622526 -0.498020  0.000000     24.000000
  0.000000  0.124505  0.747031     24.000000
  0.871536 -0.747031 -0.124505     48.000000
  0.809283 -0.684778 -0.062253     48.000000
  0.747031 -0.622526  0.000000     24.000000
  0.933788 -0.809283 -0.062253     24.000000
  0.871536 -0.747031  0.000000     24.000000
 -0.000000  0.249010  0.498020     24.000000
 -0.062253  0.311263  0.560273     48.000000
  0.809283 -0.560273 -0.311263     48.000000
  0.747031 -0.498020 -0.249010     48.000000
 -0.000000  0.249010  0.622526     24.000000
  0.871536 -0.622526 -0.249010     48.000000
  0.809283 -0.560273 -0.186758     48.000000
  0.747031 -0.498020 -0.124505     48.000000
  0.684778 -0.435768 -0.062253     48.000000
  0.622526 -0.373515  0.000000     24.000000
  0.933788 -0.684778 -0.186758     24.000000
  0.871536 -0.622526 -0.124505     48.000000
  0.809283 -0.560273 -0.062253     48.000000
  0.747031 -0.498020  0.000000     24.000000
  0.933788 -0.684778 -0.062253     24.000000
  0.871536 -0.622526  0.000000     24.000000
  0.933788 -0.560273 -0.186758     24.000000
  0.871536 -0.498020 -0.124505     48.000000
  0.933788 -0.560273 -0.062253     24.000000
  0.871536 -0.498020  0.000000     24.000000
 


--------------------------------------------------------------------------------------------------------




 Dimension of arrays:
   k-points           NKPTS =    120   k-points in BZ     NKDIM =    120   number of bands    NBANDS=     28
   number of dos      NEDOS =   3000   number of ions     NIONS =      4
   non local maximal  LDIM  =      6   non local SUM 2l+1 LMDIM =     18
   total plane-waves  NPLWV =  27000
   max r-space proj   IRMAX =      1   max aug-charges    IRDMAX= 175147
   dimension x,y,z NGX =    30 NGY =   30 NGZ =   30
   dimension x,y,z NGXF=    60 NGYF=   60 NGZF=   60
   support grid    NGXF=   120 NGYF=  120 NGZF=  120
   ions per type =               2   1   1
 NGX,Y,Z   is equivalent  to a cutoff of  11.97, 11.97, 11.97 a.u.
 NGXF,Y,Z  is equivalent  to a cutoff of  23.95, 23.95, 23.95 a.u.


 I would recommend the setting:
   dimension x,y,z NGX =    30 NGY =   30 NGZ =   30
 SYSTEM =  OPT Job       	                         
 POSCAR =  Mn V As                                 

 Startparameter for this run:
   NWRITE =      2    write-flag & timer
   PREC   = accura    normal or accurate (medium, high low for compatibility)
   ISTART =      0    job   : 0-new  1-cont  2-samecut
   ICHARG =      2    charge: 1-file 2-atom 10-const
   ISPIN  =      2    spin polarized calculation?
   LNONCOLLINEAR =      F non collinear calculations
   LSORBIT =      F    spin-orbit coupling
   INIWAV =      1    electr: 0-lowe 1-rand  2-diag
   LASPH  =      F    aspherical Exc in radial PAW
   METAGGA=      F    non-selfconsistent MetaGGA calc.

 Electronic Relaxation 1
   ENCUT  =  500.0 eV  36.75 Ry    6.06 a.u.   7.59  7.59  7.59*2*pi/ulx,y,z
   ENINI  =  500.0     initial cutoff
   ENAUG  =  598.5 eV  augmentation charge cutoff
   NELM   =    300;   NELMIN=  2; NELMDL= -6     # of ELM steps 
   EDIFF  = 0.1E-06   stopping-criterion for ELM
   LREAL  =      F    real-space projection
   NLSPLINE    = F    spline interpolate recip. space projectors
   LCOMPAT=      F    compatible to vasp.4.4
   GGA_COMPAT  = T    GGA compatible to vasp.4.4-vasp.4.6
   LMAXPAW     = -100 max onsite density
   LMAXMIX     =    2 max onsite mixed and CHGCAR
   VOSKOWN=      0    Vosko Wilk Nusair interpolation
   ROPT   =    0.00000   0.00000   0.00000
 Ionic relaxation
   EDIFFG = 0.1E-05   stopping-criterion for IOM
   NSW    =      0    number of steps for IOM
   NBLOCK =      1;   KBLOCK =      1    inner block; outer block 
   IBRION =     -1    ionic relax: 0-MD 1-quasi-New 2-CG
   NFREE  =      0    steps in history (QN), initial steepest desc. (CG)
   ISIF   =      3    stress and relaxation
   IWAVPR =     10    prediction:  0-non 1-charg 2-wave 3-comb
   ISYM   =      2    0-nonsym 1-usesym 2-fastsym
   LCORR  =      T    Harris-Foulkes like correction to forces

   POTIM  = 0.1000    time-step for ionic-motion
   TEIN   =    0.0    initial temperature
   TEBEG  =    0.0;   TEEND  =   0.0 temperature during run
   SMASS  =  -3.00    Nose mass-parameter (am)
   estimated Nose-frequenzy (Omega)   =  0.10E-29 period in steps =****** mass=  -0.396E-27a.u.
   SCALEE = 1.0000    scale energy and forces
   NPACO  =    256;   APACO  = 16.0  distance and # of slots for P.C.
   PSTRESS=    0.0 pullay stress

  Mass of Ions in am
   POMASS =  54.94 50.94 74.92
  Ionic Valenz
   ZVAL   =  13.00 11.00  5.00
  Atomic Wigner-Seitz radii
   RWIGS  =  -1.00 -1.00 -1.00
  virtual crystal weights 
   VCA    =   1.00  1.00  1.00
   NELECT =      42.0000    total number of electrons
   NUPDOWN=      -1.0000    fix difference up-down

 DOS related values:
   EMIN   =  10.00;   EMAX   =-10.00  energy-range for DOS
   EFERMI =   0.00
   ISMEAR =     0;   SIGMA  =   0.05  broadening in eV -4-tet -1-fermi 0-gaus

 Electronic relaxation 2 (details)
   IALGO  =     68    algorithm
   LDIAG  =      T    sub-space diagonalisation (order eigenvalues)
   LSUBROT=      F    optimize rotation matrix (better conditioning)
   TURBO    =      0    0=normal 1=particle mesh
   IRESTART =      0    0=no restart 2=restart with 2 vectors
   NREBOOT  =      0    no. of reboots
   NMIN     =      0    reboot dimension
   EREF     =   0.00    reference energy to select bands
   IMIX   =      4    mixing-type and parameters
     AMIX     =   0.40;   BMIX     =  1.00
     AMIX_MAG =   1.60;   BMIX_MAG =  1.00
     AMIN     =   0.10
     WC   =   100.;   INIMIX=   1;  MIXPRE=   1;  MAXMIX= -45

 Intra band minimization:
   WEIMIN = 0.0000     energy-eigenvalue tresh-hold
   EBREAK =  0.89E-09  absolut break condition
   DEPER  =   0.30     relativ break condition  

   TIME   =   0.40     timestep for ELM

  volume/ion in A,a.u.               =      12.77        86.18
  Fermi-wavevector in a.u.,A,eV,Ry     =   1.533664  2.898206 32.002627  2.352127
  Thomas-Fermi vector in A             =   2.640700
 
 Write flags
   LWAVE  =      F    write WAVECAR
   LCHARG =      T    write CHGCAR
   LVTOT  =      F    write LOCPOT, total local potential
   LVHAR  =      F    write LOCPOT, Hartree potential only
   LELF   =      F    write electronic localiz. function (ELF)
   LORBIT =     11    0 simple, 1 ext, 2 COOP (PROOUT)


 Dipole corrections
   LMONO  =      F    monopole corrections only (constant potential shift)
   LDIPOL =      F    correct potential (dipole corrections)
   IDIPOL =      0    1-x, 2-y, 3-z, 4-all directions 
   EPSILON=  1.0000000 bulk dielectric constant

 Exchange correlation treatment:
   GGA     =    --    GGA type
   LEXCH   =     8    internal setting for exchange type
   VOSKOWN=      0    Vosko Wilk Nusair interpolation
   LHFCALC =     F    Hartree Fock is set to
   LHFONE  =     F    Hartree Fock one center treatment
   AEXX    =    0.0000 exact exchange contribution

 Linear response parameters
   LEPSILON=     F    determine dielectric tensor
   LRPA    =     F    only Hartree local field effects (RPA)
   LNABLA  =     F    use nabla operator in PAW spheres
   LVEL    =     F    velocity operator in full k-point grid
   LINTERFAST=   F  fast interpolation
   KINTER  =     0    interpolate to denser k-point grid
   CSHIFT  =0.1000    complex shift for real part using Kramers Kronig
   OMEGAMAX=  -1.0    maximum frequency
   DEG_THRESHOLD= 0.2000000E-02 threshold for treating states as degnerate
   RTIME   =    0.100 relaxation time in fs

 Orbital magnetization related:
   ORBITALMAG=     F  switch on orbital magnetization
   LCHIMAG   =     F  perturbation theory with respect to B field
   DQ        =  0.001000  dq finite difference perturbation B field



--------------------------------------------------------------------------------------------------------


 Static calculation
 charge density and potential will be updated during run
 spin polarized calculation
 RMM-DIIS sequential band-by-band and
  variant of blocked Davidson during initial phase
 perform sub-space diagonalisation
    before iterative eigenvector-optimisation
 modified Broyden-mixing scheme, WC =      100.0
 initial mixing is a Kerker type mixing with AMIX =  0.4000 and BMIX =      1.0000
 Hartree-type preconditioning will be used
 using additional bands            7
 reciprocal scheme for non local part
 use partial core corrections
 calculate Harris-corrections to forces 
   (improved forces if not selfconsistent)
 use gradient corrections 
 use of overlap-Matrix (Vanderbilt PP)
 Gauss-broadening in eV      SIGMA  =   0.05


--------------------------------------------------------------------------------------------------------


  energy-cutoff  :      500.00
  volume of cell :       51.08
      direct lattice vectors                 reciprocal lattice vectors
     0.000000000  2.944992801  2.944992801    -0.169779702  0.169779702  0.169779702
     2.944992801  0.000000000  2.944992801     0.169779702 -0.169779702  0.169779702
     2.944992801  2.944992801  0.000000000     0.169779702  0.169779702 -0.169779702

  length of vectors
     4.164848760  4.164848760  4.164848760     0.294067070  0.294067070  0.294067070


 
 k-points in units of 2pi/SCALE and weight: Automatic Mesh # Generates Automatically
   0.00000000  0.00000000  0.00000000       0.000
  -0.06225256  0.06225256  0.06225256       0.002
  -0.12450511  0.12450511  0.12450511       0.002
  -0.18675767  0.18675767  0.18675767       0.002
  -0.24901023  0.24901023  0.24901023       0.002
  -0.31126279  0.31126279  0.31126279       0.002
  -0.37351534  0.37351534  0.37351534       0.002
  -0.43576790  0.43576790  0.43576790       0.002
   0.00000000  0.00000000  0.12450511       0.002
  -0.06225256  0.06225256  0.18675767       0.007
  -0.12450511  0.12450511  0.24901023       0.007
  -0.18675767  0.18675767  0.31126279       0.007
  -0.24901023  0.24901023  0.37351534       0.007
  -0.31126279  0.31126279  0.43576790       0.007
  -0.37351534  0.37351534  0.49802046       0.007
   0.49802046 -0.49802046 -0.37351534       0.007
   0.43576790 -0.43576790 -0.31126279       0.007
   0.37351534 -0.37351534 -0.24901023       0.007
   0.31126279 -0.31126279 -0.18675767       0.007
   0.24901023 -0.24901023 -0.12450511       0.007
   0.18675767 -0.18675767 -0.06225256       0.007
   0.12450511 -0.12450511  0.00000000       0.004
   0.00000000  0.00000000  0.24901023       0.002
  -0.06225256  0.06225256  0.31126279       0.007
  -0.12450511  0.12450511  0.37351534       0.007
  -0.18675767  0.18675767  0.43576790       0.007
  -0.24901023  0.24901023  0.49802046       0.007
  -0.31126279  0.31126279  0.56027302       0.007
   0.56027302 -0.56027302 -0.31126279       0.007
   0.49802046 -0.49802046 -0.24901023       0.007
   0.43576790 -0.43576790 -0.18675767       0.007
   0.37351534 -0.37351534 -0.12450511       0.007
   0.31126279 -0.31126279 -0.06225256       0.007
   0.24901023 -0.24901023  0.00000000       0.004
   0.00000000  0.00000000  0.37351534       0.002
  -0.06225256  0.06225256  0.43576790       0.007
  -0.12450511  0.12450511  0.49802046       0.007
  -0.18675767  0.18675767  0.56027302       0.007
  -0.24901023  0.24901023  0.62252557       0.007
   0.62252557 -0.62252557 -0.24901023       0.007
   0.56027302 -0.56027302 -0.18675767       0.007
   0.49802046 -0.49802046 -0.12450511       0.007
   0.43576790 -0.43576790 -0.06225256       0.007
   0.37351534 -0.37351534  0.00000000       0.004
   0.00000000  0.00000000  0.49802046       0.002
  -0.06225256  0.06225256  0.56027302       0.007
  -0.12450511  0.12450511  0.62252557       0.007
  -0.18675767  0.18675767  0.68477813       0.007
   0.68477813 -0.68477813 -0.18675767       0.007
   0.62252557 -0.62252557 -0.12450511       0.007
   0.56027302 -0.56027302 -0.06225256       0.007
   0.49802046 -0.49802046  0.00000000       0.004
   0.00000000  0.00000000  0.62252557       0.002
  -0.06225256  0.06225256  0.68477813       0.007
  -0.12450511  0.12450511  0.74703069       0.007
   0.74703069 -0.74703069 -0.12450511       0.007
   0.68477813 -0.68477813 -0.06225256       0.007
   0.62252557 -0.62252557  0.00000000       0.004
   0.00000000  0.00000000  0.74703069       0.002
  -0.06225256  0.06225256  0.80928325       0.007
   0.80928325 -0.80928325 -0.06225256       0.007
   0.74703069 -0.74703069  0.00000000       0.004
   0.00000000  0.00000000  0.87153580       0.002
   0.87153580 -0.87153580  0.00000000       0.004
  -0.00000000  0.12450511  0.24901023       0.007
  -0.06225256  0.18675767  0.31126279       0.014
  -0.12450511  0.24901023  0.37351534       0.014
  -0.18675767  0.31126279  0.43576790       0.014
  -0.24901023  0.37351534  0.49802046       0.014
   0.62252557 -0.49802046 -0.37351534       0.014
   0.00000000  0.12450511  0.37351534       0.007
  -0.06225256  0.18675767  0.43576790       0.014
  -0.12450511  0.24901023  0.49802046       0.014
  -0.18675767  0.31126279  0.56027302       0.014
   0.68477813 -0.56027302 -0.31126279       0.014
   0.62252557 -0.49802046 -0.24901023       0.014
   0.56027302 -0.43576790 -0.18675767       0.014
   0.49802046 -0.37351534 -0.12450511       0.014
   0.43576790 -0.31126279 -0.06225256       0.014
   0.37351534 -0.24901023  0.00000000       0.007
   0.00000000  0.12450511  0.49802046       0.007
  -0.06225256  0.18675767  0.56027302       0.014
  -0.12450511  0.24901023  0.62252557       0.014
   0.74703069 -0.62252557 -0.24901023       0.014
   0.68477813 -0.56027302 -0.18675767       0.014
   0.62252557 -0.49802046 -0.12450511       0.014
   0.56027302 -0.43576790 -0.06225256       0.014
   0.49802046 -0.37351534 -0.00000000       0.007
  -0.00000000  0.12450511  0.62252557       0.007
  -0.06225256  0.18675767  0.68477813       0.014
   0.80928325 -0.68477813 -0.18675767       0.014
   0.74703069 -0.62252557 -0.12450511       0.014
   0.68477813 -0.56027302 -0.06225256       0.014
   0.62252557 -0.49802046  0.00000000       0.007
   0.00000000  0.12450511  0.74703069       0.007
   0.87153580 -0.74703069 -0.12450511       0.014
   0.80928325 -0.68477813 -0.06225256       0.014
   0.74703069 -0.62252557  0.00000000       0.007
   0.93378836 -0.80928325 -0.06225256       0.007
   0.87153580 -0.74703069  0.00000000       0.007
  -0.00000000  0.24901023  0.49802046       0.007
  -0.06225256  0.31126279  0.56027302       0.014
   0.80928325 -0.56027302 -0.31126279       0.014
   0.74703069 -0.49802046 -0.24901023       0.014
  -0.00000000  0.24901023  0.62252557       0.007
   0.87153580 -0.62252557 -0.24901023       0.014
   0.80928325 -0.56027302 -0.18675767       0.014
   0.74703069 -0.49802046 -0.12450511       0.014
   0.68477813 -0.43576790 -0.06225256       0.014
   0.62252557 -0.37351534  0.00000000       0.007
   0.93378836 -0.68477813 -0.18675767       0.007
   0.87153580 -0.62252557 -0.12450511       0.014
   0.80928325 -0.56027302 -0.06225256       0.014
   0.74703069 -0.49802046  0.00000000       0.007
   0.93378836 -0.68477813 -0.06225256       0.007
   0.87153580 -0.62252557  0.00000000       0.007
   0.93378836 -0.56027302 -0.18675767       0.007
   0.87153580 -0.49802046 -0.12450511       0.014
   0.93378836 -0.56027302 -0.06225256       0.007
   0.87153580 -0.49802046  0.00000000       0.007
 
 k-points in reciprocal lattice and weights: Automatic Mesh # Generates Automatically
   0.00000000  0.00000000  0.00000000       0.000
   0.06666667  0.00000000  0.00000000       0.002
   0.13333333  0.00000000  0.00000000       0.002
   0.20000000  0.00000000  0.00000000       0.002
   0.26666667  0.00000000  0.00000000       0.002
   0.33333333  0.00000000  0.00000000       0.002
   0.40000000  0.00000000  0.00000000       0.002
   0.46666667  0.00000000  0.00000000       0.002
   0.06666667  0.06666667  0.00000000       0.002
   0.13333333  0.06666667  0.00000000       0.007
   0.20000000  0.06666667  0.00000000       0.007
   0.26666667  0.06666667  0.00000000       0.007
   0.33333333  0.06666667  0.00000000       0.007
   0.40000000  0.06666667  0.00000000       0.007
   0.46666667  0.06666667  0.00000000       0.007
  -0.46666667  0.06666667  0.00000000       0.007
  -0.40000000  0.06666667  0.00000000       0.007
  -0.33333333  0.06666667  0.00000000       0.007
  -0.26666667  0.06666667  0.00000000       0.007
  -0.20000000  0.06666667  0.00000000       0.007
  -0.13333333  0.06666667  0.00000000       0.007
  -0.06666667  0.06666667  0.00000000       0.004
   0.13333333  0.13333333  0.00000000       0.002
   0.20000000  0.13333333  0.00000000       0.007
   0.26666667  0.13333333  0.00000000       0.007
   0.33333333  0.13333333  0.00000000       0.007
   0.40000000  0.13333333  0.00000000       0.007
   0.46666667  0.13333333  0.00000000       0.007
  -0.46666667  0.13333333  0.00000000       0.007
  -0.40000000  0.13333333  0.00000000       0.007
  -0.33333333  0.13333333  0.00000000       0.007
  -0.26666667  0.13333333  0.00000000       0.007
  -0.20000000  0.13333333  0.00000000       0.007
  -0.13333333  0.13333333  0.00000000       0.004
   0.20000000  0.20000000  0.00000000       0.002
   0.26666667  0.20000000  0.00000000       0.007
   0.33333333  0.20000000  0.00000000       0.007
   0.40000000  0.20000000  0.00000000       0.007
   0.46666667  0.20000000  0.00000000       0.007
  -0.46666667  0.20000000  0.00000000       0.007
  -0.40000000  0.20000000  0.00000000       0.007
  -0.33333333  0.20000000  0.00000000       0.007
  -0.26666667  0.20000000  0.00000000       0.007
  -0.20000000  0.20000000  0.00000000       0.004
   0.26666667  0.26666667  0.00000000       0.002
   0.33333333  0.26666667  0.00000000       0.007
   0.40000000  0.26666667  0.00000000       0.007
   0.46666667  0.26666667  0.00000000       0.007
  -0.46666667  0.26666667  0.00000000       0.007
  -0.40000000  0.26666667  0.00000000       0.007
  -0.33333333  0.26666667  0.00000000       0.007
  -0.26666667  0.26666667  0.00000000       0.004
   0.33333333  0.33333333  0.00000000       0.002
   0.40000000  0.33333333  0.00000000       0.007
   0.46666667  0.33333333  0.00000000       0.007
  -0.46666667  0.33333333  0.00000000       0.007
  -0.40000000  0.33333333  0.00000000       0.007
  -0.33333333  0.33333333  0.00000000       0.004
   0.40000000  0.40000000  0.00000000       0.002
   0.46666667  0.40000000  0.00000000       0.007
  -0.46666667  0.40000000  0.00000000       0.007
  -0.40000000  0.40000000  0.00000000       0.004
   0.46666667  0.46666667  0.00000000       0.002
  -0.46666667  0.46666667  0.00000000       0.004
   0.20000000  0.13333333  0.06666667       0.007
   0.26666667  0.13333333  0.06666667       0.014
   0.33333333  0.13333333  0.06666667       0.014
   0.40000000  0.13333333  0.06666667       0.014
   0.46666667  0.13333333  0.06666667       0.014
  -0.46666667  0.13333333  0.06666667       0.014
   0.26666667  0.20000000  0.06666667       0.007
   0.33333333  0.20000000  0.06666667       0.014
   0.40000000  0.20000000  0.06666667       0.014
   0.46666667  0.20000000  0.06666667       0.014
  -0.46666667  0.20000000  0.06666667       0.014
  -0.40000000  0.20000000  0.06666667       0.014
  -0.33333333  0.20000000  0.06666667       0.014
  -0.26666667  0.20000000  0.06666667       0.014
  -0.20000000  0.20000000  0.06666667       0.014
  -0.13333333  0.20000000  0.06666667       0.007
   0.33333333  0.26666667  0.06666667       0.007
   0.40000000  0.26666667  0.06666667       0.014
   0.46666667  0.26666667  0.06666667       0.014
  -0.46666667  0.26666667  0.06666667       0.014
  -0.40000000  0.26666667  0.06666667       0.014
  -0.33333333  0.26666667  0.06666667       0.014
  -0.26666667  0.26666667  0.06666667       0.014
  -0.20000000  0.26666667  0.06666667       0.007
   0.40000000  0.33333333  0.06666667       0.007
   0.46666667  0.33333333  0.06666667       0.014
  -0.46666667  0.33333333  0.06666667       0.014
  -0.40000000  0.33333333  0.06666667       0.014
  -0.33333333  0.33333333  0.06666667       0.014
  -0.26666667  0.33333333  0.06666667       0.007
   0.46666667  0.40000000  0.06666667       0.007
  -0.46666667  0.40000000  0.06666667       0.014
  -0.40000000  0.40000000  0.06666667       0.014
  -0.33333333  0.40000000  0.06666667       0.007
  -0.46666667  0.46666667  0.06666667       0.007
  -0.40000000  0.46666667  0.06666667       0.007
   0.40000000  0.26666667  0.13333333       0.007
   0.46666667  0.26666667  0.13333333       0.014
  -0.46666667  0.26666667  0.13333333       0.014
  -0.40000000  0.26666667  0.13333333       0.014
   0.46666667  0.33333333  0.13333333       0.007
  -0.46666667  0.33333333  0.13333333       0.014
  -0.40000000  0.33333333  0.13333333       0.014
  -0.33333333  0.33333333  0.13333333       0.014
  -0.26666667  0.33333333  0.13333333       0.014
  -0.20000000  0.33333333  0.13333333       0.007
  -0.46666667  0.40000000  0.13333333       0.007
  -0.40000000  0.40000000  0.13333333       0.014
  -0.33333333  0.40000000  0.13333333       0.014
  -0.26666667  0.40000000  0.13333333       0.007
  -0.40000000  0.46666667  0.13333333       0.007
  -0.33333333  0.46666667  0.13333333       0.007
  -0.40000000  0.40000000  0.20000000       0.007
  -0.33333333  0.40000000  0.20000000       0.014
  -0.33333333  0.46666667  0.20000000       0.007
  -0.26666667  0.46666667  0.20000000       0.007
 
 position of ions in fractional coordinates (direct lattice) 
   0.00000000  0.00000000  0.00000000
   0.25000000  0.25000000  0.25000000
   0.75000000  0.75000000  0.75000000
   0.50000000  0.50000000  0.50000000
 
 position of ions in cartesian coordinates  (Angst):
   0.00000000  0.00000000  0.00000000
   1.47249640  1.47249640  1.47249640
   4.41748920  4.41748920  4.41748920
   2.94499280  2.94499280  2.94499280
 


--------------------------------------------------------------------------------------------------------


 k-point  1 :   0.0000 0.0000 0.0000  plane waves:    1291
 k-point  2 :   0.0667 0.0000 0.0000  plane waves:    1303
 k-point  3 :   0.1333 0.0000 0.0000  plane waves:    1303
 k-point  4 :   0.2000 0.0000 0.0000  plane waves:    1315
 k-point  5 :   0.2667 0.0000 0.0000  plane waves:    1311
 k-point  6 :   0.3333 0.0000 0.0000  plane waves:    1308
 k-point  7 :   0.4000 0.0000 0.0000  plane waves:    1299
 k-point  8 :   0.4667 0.0000 0.0000  plane waves:    1296
 k-point  9 :   0.0667 0.0667 0.0000  plane waves:    1299
 k-point 10 :   0.1333 0.0667 0.0000  plane waves:    1301
 k-point 11 :   0.2000 0.0667 0.0000  plane waves:    1309
 k-point 12 :   0.2667 0.0667 0.0000  plane waves:    1311
 k-point 13 :   0.3333 0.0667 0.0000  plane waves:    1304
 k-point 14 :   0.4000 0.0667 0.0000  plane waves:    1297
 k-point 15 :   0.4667 0.0667 0.0000  plane waves:    1298
 k-point 16 :  -0.4667 0.0667 0.0000  plane waves:    1290
 k-point 17 :  -0.4000 0.0667 0.0000  plane waves:    1294
 k-point 18 :  -0.3333 0.0667 0.0000  plane waves:    1297
 k-point 19 :  -0.2667 0.0667 0.0000  plane waves:    1303
 k-point 20 :  -0.2000 0.0667 0.0000  plane waves:    1310
 k-point 21 :  -0.1333 0.0667 0.0000  plane waves:    1303
 k-point 22 :  -0.0667 0.0667 0.0000  plane waves:    1295
 k-point 23 :   0.1333 0.1333 0.0000  plane waves:    1307
 k-point 24 :   0.2000 0.1333 0.0000  plane waves:    1313
 k-point 25 :   0.2667 0.1333 0.0000  plane waves:    1309
 k-point 26 :   0.3333 0.1333 0.0000  plane waves:    1304
 k-point 27 :   0.4000 0.1333 0.0000  plane waves:    1298
 k-point 28 :   0.4667 0.1333 0.0000  plane waves:    1292
 k-point 29 :  -0.4667 0.1333 0.0000  plane waves:    1294
 k-point 30 :  -0.4000 0.1333 0.0000  plane waves:    1294
 k-point 31 :  -0.3333 0.1333 0.0000  plane waves:    1301
 k-point 32 :  -0.2667 0.1333 0.0000  plane waves:    1305
 k-point 33 :  -0.2000 0.1333 0.0000  plane waves:    1305
 k-point 34 :  -0.1333 0.1333 0.0000  plane waves:    1311
 k-point 35 :   0.2000 0.2000 0.0000  plane waves:    1307
 k-point 36 :   0.2667 0.2000 0.0000  plane waves:    1308
 k-point 37 :   0.3333 0.2000 0.0000  plane waves:    1307
 k-point 38 :   0.4000 0.2000 0.0000  plane waves:    1286
 k-point 39 :   0.4667 0.2000 0.0000  plane waves:    1294
 k-point 40 :  -0.4667 0.2000 0.0000  plane waves:    1293
 k-point 41 :  -0.4000 0.2000 0.0000  plane waves:    1287
 k-point 42 :  -0.3333 0.2000 0.0000  plane waves:    1298
 k-point 43 :  -0.2667 0.2000 0.0000  plane waves:    1302
 k-point 44 :  -0.2000 0.2000 0.0000  plane waves:    1313
 k-point 45 :   0.2667 0.2667 0.0000  plane waves:    1299
 k-point 46 :   0.3333 0.2667 0.0000  plane waves:    1300
 k-point 47 :   0.4000 0.2667 0.0000  plane waves:    1295
 k-point 48 :   0.4667 0.2667 0.0000  plane waves:    1298
 k-point 49 :  -0.4667 0.2667 0.0000  plane waves:    1291
 k-point 50 :  -0.4000 0.2667 0.0000  plane waves:    1293
 k-point 51 :  -0.3333 0.2667 0.0000  plane waves:    1298
 k-point 52 :  -0.2667 0.2667 0.0000  plane waves:    1306
 k-point 53 :   0.3333 0.3333 0.0000  plane waves:    1299
 k-point 54 :   0.4000 0.3333 0.0000  plane waves:    1292
 k-point 55 :   0.4667 0.3333 0.0000  plane waves:    1296
 k-point 56 :  -0.4667 0.3333 0.0000  plane waves:    1291
 k-point 57 :  -0.4000 0.3333 0.0000  plane waves:    1294
 k-point 58 :  -0.3333 0.3333 0.0000  plane waves:    1292
 k-point 59 :   0.4000 0.4000 0.0000  plane waves:    1290
 k-point 60 :   0.4667 0.4000 0.0000  plane waves:    1292
 k-point 61 :  -0.4667 0.4000 0.0000  plane waves:    1300
 k-point 62 :  -0.4000 0.4000 0.0000  plane waves:    1296
 k-point 63 :   0.4667 0.4667 0.0000  plane waves:    1298
 k-point 64 :  -0.4667 0.4667 0.0000  plane waves:    1298
 k-point 65 :   0.2000 0.1333 0.0667  plane waves:    1306
 k-point 66 :   0.2667 0.1333 0.0667  plane waves:    1309
 k-point 67 :   0.3333 0.1333 0.0667  plane waves:    1309
 k-point 68 :   0.4000 0.1333 0.0667  plane waves:    1301
 k-point 69 :   0.4667 0.1333 0.0667  plane waves:    1294
 k-point 70 :  -0.4667 0.1333 0.0667  plane waves:    1298
 k-point 71 :   0.2667 0.2000 0.0667  plane waves:    1312
 k-point 72 :   0.3333 0.2000 0.0667  plane waves:    1304
 k-point 73 :   0.4000 0.2000 0.0667  plane waves:    1301
 k-point 74 :   0.4667 0.2000 0.0667  plane waves:    1292
 k-point 75 :  -0.4667 0.2000 0.0667  plane waves:    1296
 k-point 76 :  -0.4000 0.2000 0.0667  plane waves:    1293
 k-point 77 :  -0.3333 0.2000 0.0667  plane waves:    1300
 k-point 78 :  -0.2667 0.2000 0.0667  plane waves:    1298
 k-point 79 :  -0.2000 0.2000 0.0667  plane waves:    1304
 k-point 80 :  -0.1333 0.2000 0.0667  plane waves:    1309
 k-point 81 :   0.3333 0.2667 0.0667  plane waves:    1302
 k-point 82 :   0.4000 0.2667 0.0667  plane waves:    1296
 k-point 83 :   0.4667 0.2667 0.0667  plane waves:    1290
 k-point 84 :  -0.4667 0.2667 0.0667  plane waves:    1293
 k-point 85 :  -0.4000 0.2667 0.0667  plane waves:    1291
 k-point 86 :  -0.3333 0.2667 0.0667  plane waves:    1293
 k-point 87 :  -0.2667 0.2667 0.0667  plane waves:    1299
 k-point 88 :  -0.2000 0.2667 0.0667  plane waves:    1301
 k-point 89 :   0.4000 0.3333 0.0667  plane waves:    1295
 k-point 90 :   0.4667 0.3333 0.0667  plane waves:    1293
 k-point 91 :  -0.4667 0.3333 0.0667  plane waves:    1291
 k-point 92 :  -0.4000 0.3333 0.0667  plane waves:    1295
 k-point 93 :  -0.3333 0.3333 0.0667  plane waves:    1294
 k-point 94 :  -0.2667 0.3333 0.0667  plane waves:    1295
 k-point 95 :   0.4667 0.4000 0.0667  plane waves:    1295
 k-point 96 :  -0.4667 0.4000 0.0667  plane waves:    1296
 k-point 97 :  -0.4000 0.4000 0.0667  plane waves:    1289
 k-point 98 :  -0.3333 0.4000 0.0667  plane waves:    1290
 k-point 99 :  -0.4667 0.4667 0.0667  plane waves:    1294
 k-point ** :  -0.4000 0.4667 0.0667  plane waves:    1296
 k-point ** :   0.4000 0.2667 0.1333  plane waves:    1302
 k-point ** :   0.4667 0.2667 0.1333  plane waves:    1297
 k-point ** :  -0.4667 0.2667 0.1333  plane waves:    1295
 k-point ** :  -0.4000 0.2667 0.1333  plane waves:    1287
 k-point ** :   0.4667 0.3333 0.1333  plane waves:    1295
 k-point ** :  -0.4667 0.3333 0.1333  plane waves:    1297
 k-point ** :  -0.4000 0.3333 0.1333  plane waves:    1296
 k-point ** :  -0.3333 0.3333 0.1333  plane waves:    1294
 k-point ** :  -0.2667 0.3333 0.1333  plane waves:    1292
 k-point ** :  -0.2000 0.3333 0.1333  plane waves:    1297
 k-point ** :  -0.4667 0.4000 0.1333  plane waves:    1293
 k-point ** :  -0.4000 0.4000 0.1333  plane waves:    1294
 k-point ** :  -0.3333 0.4000 0.1333  plane waves:    1286
 k-point ** :  -0.2667 0.4000 0.1333  plane waves:    1283
 k-point ** :  -0.4000 0.4667 0.1333  plane waves:    1298
 k-point ** :  -0.3333 0.4667 0.1333  plane waves:    1286
 k-point ** :  -0.4000 0.4000 0.2000  plane waves:    1294
 k-point ** :  -0.3333 0.4000 0.2000  plane waves:    1291
 k-point ** :  -0.3333 0.4667 0.2000  plane waves:    1294
 k-point ** :  -0.2667 0.4667 0.2000  plane waves:    1284

 maximum and minimum number of plane-waves per node :      1315     1283

 maximum number of plane-waves:      1315
 maximum index in each direction: 
   IXMAX=    8   IYMAX=    7   IZMAX=    7
   IXMIN=   -8   IYMIN=   -8   IZMIN=   -7

 WARNING: aliasing errors must be expected set NGX to  34 to avoid them
 WARNING: aliasing errors must be expected set NGY to  32 to avoid them
 NGZ is ok and might be reduce to  30
 aliasing errors are usually negligible using standard VASP settings
 and one can safely disregard these warnings

 serial   3D FFT for wavefunctions
 parallel 3D FFT for charge:
    minimum data exchange during FFTs selected (reduces bandwidth)


 total amount of memory used by VASP on root node   150818. kBytes
========================================================================

   base      :      30000. kBytes
   nonl-proj :      68305. kBytes
   fftplans  :       8118. kBytes
   grid      :       7070. kBytes
   one-center:        124. kBytes
   wavefun   :      37201. kBytes
 
     INWAV:  cpu time    0.0010: real time    0.0002
 Broyden mixing: mesh for mixing (old mesh)
   NGX = 15   NGY = 15   NGZ = 15
  (NGX  = 60   NGY  = 60   NGZ  = 60)
  gives a total of   3375 points

 initial charge density was supplied:
 charge density of overlapping atoms calculated
 number of electron      42.0000000 magnetization      -0.5000000
 keeping initial charge density in first step


--------------------------------------------------------------------------------------------------------


 Maximum index for augmentation-charges        42415 (set IRDMAX)


--------------------------------------------------------------------------------------------------------


 First call to EWALD:  gamma=   0.478
 Maximum number of real-space cells 3x 3x 3
 Maximum number of reciprocal cells 3x 3x 3

 FEWALD executed in parallel
    FEWALD:  cpu time    0.0010: real time    0.0011


----------------------------------------- Iteration    1(   1)  ---------------------------------------


    POTLOK:  cpu time    0.0570: real time    0.0578
    SETDIJ:  cpu time    0.1530: real time    0.1525
     EDDAV:  cpu time    6.4310: real time    6.4391
       DOS:  cpu time    0.0050: real time    0.0052
    --------------------------------------------
      LOOP:  cpu time    6.6480: real time    6.6579

 eigenvalue-minimisations  : 13912
 total energy-change (2. order) : 0.4791643E+03  (-0.2301373E+04)
 number of electron      42.0000000 magnetization      -0.5000000
 augmentation part       42.0000000 magnetization      -0.5000000

 Free energy of the ion-electron system (eV)
  ---------------------------------------------------
  alpha Z        PSCENC =       294.47591998
  Ewald energy   TEWEN  =     -4113.69783220
  -Hartree energ DENC   =     -1426.54256098
  -exchange      EXHF   =         0.00000000
  -V(xc)+E(xc)   XCENC  =       156.75347324
  PAW double counting   =      4526.91047494    -4582.83274487
  entropy T*S    EENTRO =        -0.00176220
  eigenvalues    EBANDS =        81.77794280
  atomic energy  EATOM  =      5542.32138669
  Solvation  Ediel_sol  =         0.00000000
  ---------------------------------------------------
  free energy    TOTEN  =       479.16429740 eV

  energy without entropy =      479.16605960  energy(sigma->0) =      479.16517850


--------------------------------------------------------------------------------------------------------




----------------------------------------- Iteration    1(   2)  ---------------------------------------


     EDDAV:  cpu time    6.2820: real time    6.2896
       DOS:  cpu time    0.0060: real time    0.0059
    --------------------------------------------
      LOOP:  cpu time    6.2890: real time    6.2986

 eigenvalue-minimisations  : 13456
 total energy-change (2. order) :-0.4848671E+03  (-0.4744938E+03)
 number of electron      42.0000000 magnetization      -0.5000000
 augmentation part       42.0000000 magnetization      -0.5000000

 Free energy of the ion-electron system (eV)
  ---------------------------------------------------
  alpha Z        PSCENC =       294.47591998
  Ewald energy   TEWEN  =     -4113.69783220
  -Hartree energ DENC   =     -1426.54256098
  -exchange      EXHF   =         0.00000000
  -V(xc)+E(xc)   XCENC  =       156.75347324
  PAW double counting   =      4526.91047494    -4582.83274487
  entropy T*S    EENTRO =        -0.00475049
  eigenvalues    EBANDS =      -403.08612538
  atomic energy  EATOM  =      5542.32138669
  Solvation  Ediel_sol  =         0.00000000
  ---------------------------------------------------
  free energy    TOTEN  =        -5.70275906 eV

  energy without entropy =       -5.69800857  energy(sigma->0) =       -5.70038382


--------------------------------------------------------------------------------------------------------




----------------------------------------- Iteration    1(   3)  ---------------------------------------


     EDDAV:  cpu time    7.1569: real time    7.1646
       DOS:  cpu time    0.0060: real time    0.0062
    --------------------------------------------
      LOOP:  cpu time    7.1629: real time    7.1743

 eigenvalue-minimisations  : 16228
 total energy-change (2. order) :-0.2831204E+02  (-0.2683724E+02)
 number of electron      42.0000000 magnetization      -0.5000000
 augmentation part       42.0000000 magnetization      -0.5000000

 Free energy of the ion-electron system (eV)
  ---------------------------------------------------
  alpha Z        PSCENC =       294.47591998
  Ewald energy   TEWEN  =     -4113.69783220
  -Hartree energ DENC   =     -1426.54256098
  -exchange      EXHF   =         0.00000000
  -V(xc)+E(xc)   XCENC  =       156.75347324
  PAW double counting   =      4526.91047494    -4582.83274487
  entropy T*S    EENTRO =        -0.00512836
  eigenvalues    EBANDS =      -431.39779181
  atomic energy  EATOM  =      5542.32138669
  Solvation  Ediel_sol  =         0.00000000
  ---------------------------------------------------
  free energy    TOTEN  =       -34.01480337 eV

  energy without entropy =      -34.00967501  energy(sigma->0) =      -34.01223919


--------------------------------------------------------------------------------------------------------




----------------------------------------- Iteration    1(   4)  ---------------------------------------


     EDDAV:  cpu time    7.1499: real time    7.1579
       DOS:  cpu time    0.0070: real time    0.0063
    --------------------------------------------
      LOOP:  cpu time    7.1569: real time    7.1677

 eigenvalue-minimisations  : 16220
 total energy-change (2. order) :-0.1042259E+01  (-0.1026588E+01)
 number of electron      42.0000000 magnetization      -0.5000000
 augmentation part       42.0000000 magnetization      -0.5000000

 Free energy of the ion-electron system (eV)
  ---------------------------------------------------
  alpha Z        PSCENC =       294.47591998
  Ewald energy   TEWEN  =     -4113.69783220
  -Hartree energ DENC   =     -1426.54256098
  -exchange      EXHF   =         0.00000000
  -V(xc)+E(xc)   XCENC  =       156.75347324
  PAW double counting   =      4526.91047494    -4582.83274487
  entropy T*S    EENTRO =        -0.00514552
  eigenvalues    EBANDS =      -432.44003381
  atomic energy  EATOM  =      5542.32138669
  Solvation  Ediel_sol  =         0.00000000
  ---------------------------------------------------
  free energy    TOTEN  =       -35.05706253 eV

  energy without entropy =      -35.05191701  energy(sigma->0) =      -35.05448977


--------------------------------------------------------------------------------------------------------




----------------------------------------- Iteration    1(   5)  ---------------------------------------


     EDDAV:  cpu time    7.1659: real time    7.1740
       DOS:  cpu time    0.0060: real time    0.0064
    --------------------------------------------
      LOOP:  cpu time    7.1719: real time    7.1838

 eigenvalue-minimisations  : 16272
 total energy-change (2. order) :-0.2525423E-01  (-0.2522838E-01)
 number of electron      42.0000000 magnetization      -0.5000000
 augmentation part       42.0000000 magnetization      -0.5000000

 Free energy of the ion-electron system (eV)
  ---------------------------------------------------
  alpha Z        PSCENC =       294.47591998
  Ewald energy   TEWEN  =     -4113.69783220
  -Hartree energ DENC   =     -1426.54256098
  -exchange      EXHF   =         0.00000000
  -V(xc)+E(xc)   XCENC  =       156.75347324
  PAW double counting   =      4526.91047494    -4582.83274487
  entropy T*S    EENTRO =        -0.00517437
  eigenvalues    EBANDS =      -432.46525920
  atomic energy  EATOM  =      5542.32138669
  Solvation  Ediel_sol  =         0.00000000
  ---------------------------------------------------
  free energy    TOTEN  =       -35.08231676 eV

  energy without entropy =      -35.07714239  energy(sigma->0) =      -35.07972958


--------------------------------------------------------------------------------------------------------




----------------------------------------- Iteration    1(   6)  ---------------------------------------


     EDDAV:  cpu time    7.3709: real time    7.3793
       DOS:  cpu time    0.0060: real time    0.0064
    CHARGE:  cpu time    0.5259: real time    0.5265
    MIXING:  cpu time    0.0020: real time    0.0023
    --------------------------------------------
      LOOP:  cpu time    7.9068: real time    7.9177

 eigenvalue-minimisations  : 16928
 total energy-change (2. order) :-0.8005258E-03  (-0.8004323E-03)
 number of electron      42.0000000 magnetization       0.5874997
 augmentation part       16.8769694 magnetization       0.5070393

 Broyden mixing:
  rms(total) = 0.25894E+01    rms(broyden)= 0.25892E+01
  rms(prec ) = 0.44849E+01
  weight for this iteration     100.00

 Free energy of the ion-electron system (eV)
  ---------------------------------------------------
  alpha Z        PSCENC =       294.47591998
  Ewald energy   TEWEN  =     -4113.69783220
  -Hartree energ DENC   =     -1426.54256098
  -exchange      EXHF   =         0.00000000
  -V(xc)+E(xc)   XCENC  =       156.75347324
  PAW double counting   =      4526.91047494    -4582.83274487
  entropy T*S    EENTRO =        -0.00517494
  eigenvalues    EBANDS =      -432.46605915
  atomic energy  EATOM  =      5542.32138669
  Solvation  Ediel_sol  =         0.00000000
  ---------------------------------------------------
  free energy    TOTEN  =       -35.08311729 eV

  energy without entropy =      -35.07794235  energy(sigma->0) =      -35.08052982


--------------------------------------------------------------------------------------------------------




----------------------------------------- Iteration    1(   7)  ---------------------------------------


    POTLOK:  cpu time    0.2090: real time    0.2096
    SETDIJ:  cpu time    0.1520: real time    0.1517
    EDDIAG:  cpu time    1.2208: real time    1.2223
  RMM-DIIS:  cpu time    5.0002: real time    5.0054
    ORTHCH:  cpu time    0.0630: real time    0.0632
       DOS:  cpu time    0.0060: real time    0.0062
    CHARGE:  cpu time    0.5239: real time    0.5245
    MIXING:  cpu time    0.0020: real time    0.0026
    --------------------------------------------
      LOOP:  cpu time    7.1779: real time    7.1893

 eigenvalue-minimisations  : 13738
 total energy-change (2. order) :-0.1905603E+01  (-0.5111928E+01)
 number of electron      42.0000000 magnetization       1.2260416
 augmentation part       19.9128906 magnetization       0.4828282

 Broyden mixing:
  rms(total) = 0.27625E+01    rms(broyden)= 0.27624E+01
  rms(prec ) = 0.80402E+01
  weight for this iteration     100.00

 eigenvalues of (default mixing * dielectric matrix)
  average eigenvalue GAMMA=   0.4536
  0.4536

 Free energy of the ion-electron system (eV)
  ---------------------------------------------------
  alpha Z        PSCENC =       294.47591998
  Ewald energy   TEWEN  =     -4113.69783220
  -Hartree energ DENC   =     -1315.61771474
  -exchange      EXHF   =         0.00000000
  -V(xc)+E(xc)   XCENC  =       151.80657685
  PAW double counting   =      4854.61606373    -4910.45009787
  entropy T*S    EENTRO =        -0.00740847
  eigenvalues    EBANDS =      -540.43561471
  atomic energy  EATOM  =      5542.32138669
  Solvation  Ediel_sol  =         0.00000000
  ---------------------------------------------------
  free energy    TOTEN  =       -36.98872075 eV

  energy without entropy =      -36.98131228  energy(sigma->0) =      -36.98501652


--------------------------------------------------------------------------------------------------------




----------------------------------------- Iteration    1(   8)  ---------------------------------------


    POTLOK:  cpu time    0.0570: real time    0.0576
    SETDIJ:  cpu time    0.1520: real time    0.1514
    EDDIAG:  cpu time    1.2208: real time    1.2221
  RMM-DIIS:  cpu time    5.0692: real time    5.0768
    ORTHCH:  cpu time    0.0630: real time    0.0635
       DOS:  cpu time    0.0070: real time    0.0063
    CHARGE:  cpu time    0.5249: real time    0.5263
    MIXING:  cpu time    0.0020: real time    0.0017
    --------------------------------------------
      LOOP:  cpu time    7.0969: real time    7.1093

 eigenvalue-minimisations  : 14000
 total energy-change (2. order) : 0.1836028E+01  (-0.1783465E+01)
 number of electron      42.0000000 magnetization       1.6323153
 augmentation part       18.5016646 magnetization       1.3546366

 Broyden mixing:
  rms(total) = 0.22553E+01    rms(broyden)= 0.22551E+01
  rms(prec ) = 0.72206E+01
  weight for this iteration     100.00

 eigenvalues of (default mixing * dielectric matrix)
  average eigenvalue GAMMA=   0.4847
  0.7779  0.1914

 Free energy of the ion-electron system (eV)
  ---------------------------------------------------
  alpha Z        PSCENC =       294.47591998
  Ewald energy   TEWEN  =     -4113.69783220
  -Hartree energ DENC   =     -1344.59553236
  -exchange      EXHF   =         0.00000000
  -V(xc)+E(xc)   XCENC  =       152.99450562
  PAW double counting   =      4971.61932338    -5031.45889959
  entropy T*S    EENTRO =        -0.00393828
  eigenvalues    EBANDS =      -506.80762646
  atomic energy  EATOM  =      5542.32138669
  Solvation  Ediel_sol  =         0.00000000
  ---------------------------------------------------
  free energy    TOTEN  =       -35.15269322 eV

  energy without entropy =      -35.14875494  energy(sigma->0) =      -35.15072408


--------------------------------------------------------------------------------------------------------




----------------------------------------- Iteration    1(   9)  ---------------------------------------


    POTLOK:  cpu time    0.0570: real time    0.0580
    SETDIJ:  cpu time    0.1520: real time    0.1516
    EDDIAG:  cpu time    1.2208: real time    1.2226
  RMM-DIIS:  cpu time    5.0092: real time    5.0163
    ORTHCH:  cpu time    0.0630: real time    0.0628
       DOS:  cpu time    0.0050: real time    0.0064
    CHARGE:  cpu time    0.5319: real time    0.5318
    MIXING:  cpu time    0.0020: real time    0.0017
    --------------------------------------------
      LOOP:  cpu time    7.0429: real time    7.0549

 eigenvalue-minimisations  : 13554
 total energy-change (2. order) : 0.2543029E+01  (-0.4564800E+00)
 number of electron      42.0000000 magnetization       1.4106423
 augmentation part       18.4322941 magnetization       1.2690013

 Broyden mixing:
  rms(total) = 0.13133E+01    rms(broyden)= 0.13131E+01
  rms(prec ) = 0.35164E+01
  weight for this iteration     100.00

 eigenvalues of (default mixing * dielectric matrix)
  average eigenvalue GAMMA=   0.4649
  0.9207  0.3220  0.1520

 Free energy of the ion-electron system (eV)
  ---------------------------------------------------
  alpha Z        PSCENC =       294.47591998
  Ewald energy   TEWEN  =     -4113.69783220
  -Hartree energ DENC   =     -1354.46754200
  -exchange      EXHF   =         0.00000000
  -V(xc)+E(xc)   XCENC  =       153.52866520
  PAW double counting   =      5078.35713199    -5139.03733338
  entropy T*S    EENTRO =        -0.00811517
  eigenvalues    EBANDS =      -494.08194530
  atomic energy  EATOM  =      5542.32138669
  Solvation  Ediel_sol  =         0.00000000
  ---------------------------------------------------
  free energy    TOTEN  =       -32.60966418 eV

  energy without entropy =      -32.60154901  energy(sigma->0) =      -32.60560660


--------------------------------------------------------------------------------------------------------




----------------------------------------- Iteration    1(  10)  ---------------------------------------


    POTLOK:  cpu time    0.0590: real time    0.0588
    SETDIJ:  cpu time    0.1510: real time    0.1515
    EDDIAG:  cpu time    1.2208: real time    1.2213
  RMM-DIIS:  cpu time    5.0442: real time    5.0499
    ORTHCH:  cpu time    0.0630: real time    0.0631
       DOS:  cpu time    0.0060: real time    0.0063
    CHARGE:  cpu time    0.5229: real time    0.5235
    MIXING:  cpu time    0.0020: real time    0.0022
    --------------------------------------------
      LOOP:  cpu time    7.0689: real time    7.0801

 eigenvalue-minimisations  : 13912
 total energy-change (2. order) : 0.6118892E+00  (-0.1405896E+00)
 number of electron      42.0000000 magnetization       1.2038510
 augmentation part       18.5057876 magnetization       0.9049730

 Broyden mixing:
  rms(total) = 0.42533E+00    rms(broyden)= 0.42512E+00
  rms(prec ) = 0.88050E+00
  weight for this iteration     100.00

 eigenvalues of (default mixing * dielectric matrix)
  average eigenvalue GAMMA=   0.4786
  1.0865  0.5019  0.1538  0.1721

 Free energy of the ion-electron system (eV)
  ---------------------------------------------------
  alpha Z        PSCENC =       294.47591998
  Ewald energy   TEWEN  =     -4113.69783220
  -Hartree energ DENC   =     -1351.88232545
  -exchange      EXHF   =         0.00000000
  -V(xc)+E(xc)   XCENC  =       153.39148743
  PAW double counting   =      5104.17991108    -5164.70318263
  entropy T*S    EENTRO =        -0.00471064
  eigenvalues    EBANDS =      -496.07842923
  atomic energy  EATOM  =      5542.32138669
  Solvation  Ediel_sol  =         0.00000000
  ---------------------------------------------------
  free energy    TOTEN  =       -31.99777495 eV

  energy without entropy =      -31.99306432  energy(sigma->0) =      -31.99541963


--------------------------------------------------------------------------------------------------------




----------------------------------------- Iteration    1(  11)  ---------------------------------------


    POTLOK:  cpu time    0.0560: real time    0.0573
    SETDIJ:  cpu time    0.1520: real time    0.1515
    EDDIAG:  cpu time    1.2198: real time    1.2210
  RMM-DIIS:  cpu time    5.7761: real time    5.7836
    ORTHCH:  cpu time    0.0640: real time    0.0633
       DOS:  cpu time    0.0060: real time    0.0065
    CHARGE:  cpu time    0.5269: real time    0.5265
    MIXING:  cpu time    0.0010: real time    0.0018
    --------------------------------------------
      LOOP:  cpu time    7.8028: real time    7.8157

 eigenvalue-minimisations  : 16180
 total energy-change (2. order) : 0.7690980E-01  (-0.1605957E-01)
 number of electron      42.0000000 magnetization       1.0935748
 augmentation part       18.5262394 magnetization       0.8802412

 Broyden mixing:
  rms(total) = 0.19905E+00    rms(broyden)= 0.19902E+00
  rms(prec ) = 0.27132E+00
  weight for this iteration     100.00

 eigenvalues of (default mixing * dielectric matrix)
  average eigenvalue GAMMA=   0.5884
  1.1532  0.7318  0.7318  0.1751  0.1499

 Free energy of the ion-electron system (eV)
  ---------------------------------------------------
  alpha Z        PSCENC =       294.47591998
  Ewald energy   TEWEN  =     -4113.69783220
  -Hartree energ DENC   =     -1347.52078695
  -exchange      EXHF   =         0.00000000
  -V(xc)+E(xc)   XCENC  =       153.25109040
  PAW double counting   =      5214.11330963    -5275.53635698
  entropy T*S    EENTRO =        -0.00486484
  eigenvalues    EBANDS =      -499.32273088
  atomic energy  EATOM  =      5542.32138669
  Solvation  Ediel_sol  =         0.00000000
  ---------------------------------------------------
  free energy    TOTEN  =       -31.92086515 eV

  energy without entropy =      -31.91600031  energy(sigma->0) =      -31.91843273


--------------------------------------------------------------------------------------------------------




----------------------------------------- Iteration    1(  12)  ---------------------------------------


    POTLOK:  cpu time    0.0570: real time    0.0576
    SETDIJ:  cpu time    0.1510: real time    0.1514
    EDDIAG:  cpu time    1.2178: real time    1.2193
  RMM-DIIS:  cpu time    5.7871: real time    5.7950
    ORTHCH:  cpu time    0.0630: real time    0.0627
       DOS:  cpu time    0.0070: real time    0.0064
    CHARGE:  cpu time    0.5259: real time    0.5278
[...]
      3     -39.3684      1.00000
      4     -37.1624      1.00000
      5     -37.1557      1.00000
      6     -37.1533      1.00000
      7     -29.2374      1.00000
      8     -29.2313      1.00000
      9     -29.2286      1.00000
     10      -2.8642      1.00000
     11       2.7098      1.00000
     12       3.7724      1.00000
     13       4.5619      1.00000
     14       5.6838      1.00000
     15       6.8055      1.00000
     16       7.0958      1.00000
     17       7.3499      1.00000
     18       7.3803      1.00000
     19       8.2164      1.00000
     20       8.2740      1.00000
     21       8.6942      1.00000
     22       9.8355      0.00000
     23      10.1371      0.00000
     24      10.2826      0.00000
     25      10.5273      0.00000
     26      10.6252      0.00000
     27      10.9555      0.00000
     28      11.0198      0.00000

 k-point   117 :      -0.4000    0.4000    0.2000
  band No.  band energies     occupation 
      1     -39.3744      1.00000
      2     -39.3728      1.00000
      3     -39.3685      1.00000
      4     -37.1623      1.00000
      5     -37.1559      1.00000
      6     -37.1533      1.00000
      7     -29.2364      1.00000
      8     -29.2318      1.00000
      9     -29.2285      1.00000
     10      -2.9428      1.00000
     11       2.7299      1.00000
     12       3.6808      1.00000
     13       4.5082      1.00000
     14       5.8748      1.00000
     15       6.9627      1.00000
     16       7.0759      1.00000
     17       7.3108      1.00000
     18       7.4994      1.00000
     19       8.0960      1.00000
     20       8.2401      1.00000
     21       8.6857      1.00000
     22       9.9265      0.00000
     23      10.1684      0.00000
     24      10.3267      0.00000
     25      10.6065      0.00000
     26      10.7731      0.00000
     27      10.9280      0.00000
     28      11.2653      0.00000

 k-point   118 :      -0.3333    0.4000    0.2000
  band No.  band energies     occupation 
      1     -39.3746      1.00000
      2     -39.3730      1.00000
      3     -39.3683      1.00000
      4     -37.1627      1.00000
      5     -37.1558      1.00000
      6     -37.1529      1.00000
      7     -29.2356      1.00000
      8     -29.2330      1.00000
      9     -29.2287      1.00000
     10      -2.8892      1.00000
     11       2.9333      1.00000
     12       3.3977      1.00000
     13       4.4845      1.00000
     14       5.8077      1.00000
     15       7.0562      1.00000
     16       7.1135      1.00000
     17       7.3310      1.00000
     18       7.4467      1.00000
     19       8.1358      1.00000
     20       8.2406      1.00000
     21       8.5806      1.00000
     22       9.9501      0.00000
     23      10.0210      0.00000
     24      10.4124      0.00000
     25      10.5317      0.00000
     26      10.7049      0.00000
     27      10.9297      0.00000
     28      11.2011      0.00000

 k-point   119 :      -0.3333    0.4667    0.2000
  band No.  band energies     occupation 
      1     -39.3746      1.00000
      2     -39.3733      1.00000
      3     -39.3683      1.00000
      4     -37.1627      1.00000
      5     -37.1557      1.00000
      6     -37.1531      1.00000
      7     -29.2364      1.00000
      8     -29.2322      1.00000
      9     -29.2287      1.00000
     10      -2.8662      1.00000
     11       2.8444      1.00000
     12       3.5938      1.00000
     13       4.4599      1.00000
     14       5.7401      1.00000
     15       6.9435      1.00000
     16       7.1063      1.00000
     17       7.3439      1.00000
     18       7.4011      1.00000
     19       8.1877      1.00000
     20       8.2433      1.00000
     21       8.6465      1.00000
     22       9.8584      0.00000
     23      10.0698      0.00000
     24      10.3502      0.00000
     25      10.5058      0.00000
     26      10.6498      0.00000
     27      10.9492      0.00000
     28      11.0954      0.00000

 k-point   120 :      -0.2667    0.4667    0.2000
  band No.  band energies     occupation 
      1     -39.3747      1.00000
      2     -39.3732      1.00000
      3     -39.3682      1.00000
      4     -37.1629      1.00000
      5     -37.1557      1.00000
      6     -37.1528      1.00000
      7     -29.2354      1.00000
      8     -29.2332      1.00000
      9     -29.2288      1.00000
     10      -2.8594      1.00000
     11       3.0473      1.00000
     12       3.3301      1.00000
     13       4.4343      1.00000
     14       5.7515      1.00000
     15       7.0443      1.00000
     16       7.1128      1.00000
     17       7.3490      1.00000
     18       7.3999      1.00000
     19       8.1769      1.00000
     20       8.2465      1.00000
     21       8.5802      1.00000
     22       9.8883      0.00000
     23       9.9951      0.00000
     24      10.4322      0.00000
     25      10.4905      0.00000
     26      10.6286      0.00000
     27      10.9823      0.00000
     28      11.0896      0.00000


--------------------------------------------------------------------------------------------------------


 soft charge-density along one line, spin component           1
         0         1         2         3         4         5         6         7         8         9
 total charge-density along one line
 
 soft charge-density along one line, spin component           2
         0         1         2         3         4         5         6         7         8         9
 total charge-density along one line
 
 pseudopotential strength for first ion, spin component:           1
-41.452   0.000   0.000   7.454  -0.000  -0.000   0.000   0.000
  0.000 -41.452   0.000  -0.000   7.454  -0.000   0.013   0.000
  0.000   0.000 -41.452  -0.000  -0.000   7.454   0.000   0.013
  7.454  -0.000  -0.000   5.260   0.000   0.000  -0.000  -0.000
 -0.000   7.454  -0.000   0.000   5.260   0.000  -0.004  -0.000
 -0.000  -0.000   7.454   0.000   0.000   5.260  -0.000  -0.004
  0.000   0.013   0.000  -0.000  -0.004  -0.000  -2.103   0.000
  0.000   0.000   0.013  -0.000  -0.000  -0.004   0.000  -2.103
  0.000  -0.000   0.000  -0.000   0.000  -0.000  -0.000   0.000
  0.013   0.000   0.000  -0.004  -0.000  -0.000   0.000   0.000
  0.000   0.000  -0.000  -0.000  -0.000   0.000  -0.000  -0.000
  0.000   0.013   0.000  -0.000  -0.004  -0.000  -2.604   0.000
  0.000   0.000   0.013  -0.000  -0.000  -0.004   0.000  -2.604
  0.000  -0.000   0.000  -0.000   0.000  -0.000  -0.000   0.000
  0.013   0.000   0.000  -0.004  -0.000  -0.000   0.000   0.000
  0.000   0.000  -0.000  -0.000  -0.000   0.000  -0.000  -0.000
 -0.000  -0.000  -0.000  -0.000  -0.000  -0.000  -0.000  -0.000
 -0.000  -0.000  -0.000  -0.000  -0.000  -0.000  -0.000  -0.000
 pseudopotential strength for first ion, spin component:           2
-39.465   0.000   0.000   6.542  -0.000  -0.000  -0.000  -0.000
  0.000 -39.465   0.000  -0.000   6.542  -0.000   0.003  -0.000
  0.000   0.000 -39.465  -0.000  -0.000   6.542  -0.000   0.003
  6.542  -0.000  -0.000   5.560   0.000   0.000   0.000   0.000
 -0.000   6.542  -0.000   0.000   5.560   0.000   0.001   0.000
 -0.000  -0.000   6.542   0.000   0.000   5.560   0.000   0.001
 -0.000   0.003  -0.000   0.000   0.001   0.000  -0.531   0.000
 -0.000  -0.000   0.003   0.000   0.000   0.001   0.000  -0.531
 -0.000   0.000  -0.000   0.000  -0.000   0.000  -0.000   0.000
  0.003  -0.000  -0.000   0.001   0.000   0.000   0.000   0.000
 -0.000   0.000   0.000   0.000  -0.000  -0.000  -0.000  -0.000
 -0.000   0.003  -0.000   0.000   0.001   0.000  -1.055   0.000
 -0.000  -0.000   0.003   0.000   0.000   0.001   0.000  -1.055
 -0.000   0.000  -0.000   0.000  -0.000   0.000  -0.000   0.000
  0.003  -0.000  -0.000   0.001   0.000   0.000   0.000   0.000
 -0.000   0.000   0.000   0.000  -0.000  -0.000  -0.000  -0.000
  0.000   0.000   0.000   0.000   0.000   0.000  -0.000  -0.000
  0.000   0.000   0.000   0.000   0.000   0.000  -0.000  -0.000
 total augmentation occupancy for first ion, spin component:           1
  1.993   0.000   0.000  -0.024   0.000   0.000   0.000   0.000  -0.000   0.004   0.000   0.000   0.000  -0.000  -0.005  -0.000
  0.000   1.993   0.000   0.000  -0.024   0.000   0.004   0.000   0.000   0.000  -0.000  -0.005   0.000   0.000  -0.000  -0.000
  0.000   0.000   1.993   0.000   0.000  -0.024   0.000   0.004   0.000  -0.000  -0.000   0.000  -0.005   0.000   0.000   0.000
 -0.024   0.000   0.000   0.162   0.000   0.000   0.000   0.000  -0.000  -0.044  -0.000   0.000   0.000   0.000   0.026   0.000
  0.000  -0.024   0.000   0.000   0.162  -0.000  -0.044  -0.000   0.000   0.000   0.000   0.026   0.000  -0.000   0.000   0.000
  0.000   0.000  -0.024   0.000  -0.000   0.162  -0.000  -0.044   0.000   0.000   0.000  -0.000   0.026   0.000   0.000   0.000
  0.000   0.004   0.000   0.000  -0.044   0.000   0.972   0.000   0.000  -0.000   0.000  -0.637   0.000   0.000   0.000   0.000
 -0.000  -0.000   0.004   0.000   0.000  -0.044   0.000   0.972   0.000   0.000   0.000   0.000  -0.637   0.000   0.000   0.000
  0.000  -0.000   0.000  -0.000   0.000   0.000   0.000   0.000   4.105   0.000   0.000   0.000   0.000  -2.768  -0.000   0.000
  0.004   0.000   0.000  -0.044   0.000   0.000  -0.000   0.000   0.000   0.972   0.000   0.000   0.000   0.000  -0.637  -0.000
  0.000   0.000  -0.000   0.000   0.000   0.000  -0.000  -0.000   0.000   0.000   4.105   0.000   0.000   0.000   0.000  -2.768
  0.000  -0.005   0.000   0.000   0.026   0.000  -0.637  -0.000   0.000   0.000   0.000   1.472  -0.000   0.000  -0.000   0.000
  0.000   0.000  -0.005  -0.000  -0.000   0.026   0.000  -0.637  -0.000  -0.000  -0.000  -0.000   1.472  -0.000   0.000  -0.000
  0.000   0.000  -0.000   0.000  -0.000   0.000   0.000   0.000  -2.768   0.000   0.000   0.000  -0.000   2.538  -0.000   0.000
 -0.005   0.000   0.000   0.026  -0.000   0.000   0.000   0.000  -0.000  -0.637  -0.000  -0.000   0.000  -0.000   1.472   0.000
  0.000   0.000  -0.000   0.000   0.000   0.000  -0.000   0.000   0.000   0.000  -2.768   0.000   0.000   0.000   0.000   2.538
  0.000   0.000   0.000   0.000   0.000   0.000  -0.000   0.000   0.000  -0.000   0.000   0.000   0.000   0.000   0.000   0.000
  0.000   0.000   0.000   0.000   0.000   0.000   0.000  -0.000  -0.000   0.000   0.000   0.000  -0.000   0.000   0.000   0.000
 total augmentation occupancy for first ion, spin component:           2
 -0.002   0.000   0.000  -0.007   0.000   0.000  -0.000  -0.000  -0.000  -0.006   0.000   0.000  -0.000   0.000   0.005   0.000
  0.000  -0.002   0.000   0.000  -0.007   0.000  -0.006   0.000  -0.000  -0.000   0.000   0.005   0.000   0.000   0.000   0.000
  0.000   0.000  -0.002   0.000   0.000  -0.007  -0.000  -0.006   0.000   0.000   0.000   0.000   0.005  -0.000   0.000   0.000
 -0.007   0.000   0.000   0.001   0.000   0.000   0.000  -0.000   0.000  -0.004  -0.000  -0.000   0.000   0.000   0.022   0.000
  0.000  -0.007   0.000   0.000   0.001   0.000  -0.004  -0.000  -0.000   0.000  -0.000   0.022  -0.000   0.000  -0.000  -0.000
  0.000   0.000  -0.007   0.000   0.000   0.001  -0.000  -0.004   0.000  -0.000  -0.000   0.000   0.022  -0.000   0.000   0.000
 -0.000  -0.006   0.000  -0.000  -0.004   0.000   0.365   0.000  -0.000   0.000  -0.000   0.445   0.000  -0.000   0.000   0.000
  0.000   0.000  -0.006  -0.000   0.000  -0.004   0.000   0.365  -0.000   0.000   0.000   0.000   0.445   0.000   0.000   0.000
  0.000   0.000   0.000   0.000  -0.000  -0.000   0.000   0.000   2.940  -0.000   0.000   0.000   0.000  -1.250  -0.000   0.000
 -0.006   0.000   0.000  -0.004   0.000  -0.000   0.000   0.000  -0.000   0.365  -0.000   0.000   0.000   0.000   0.445   0.000
  0.000  -0.000  -0.000  -0.000   0.000   0.000  -0.000   0.000   0.000  -0.000   2.940  -0.000   0.000   0.000  -0.000  -1.250
  0.000   0.005  -0.000   0.000   0.022  -0.000   0.445   0.000   0.000   0.000  -0.000  -0.809   0.000  -0.000   0.000   0.000
 -0.000   0.000   0.005  -0.000   0.000   0.022   0.000   0.445   0.000   0.000   0.000   0.000  -0.809  -0.000   0.000  -0.000
  0.000   0.000   0.000   0.000   0.000   0.000   0.000   0.000  -1.250   0.000   0.000   0.000  -0.000   0.533  -0.000   0.000
  0.005  -0.000  -0.000   0.022   0.000  -0.000   0.000   0.000   0.000   0.445  -0.000   0.000   0.000  -0.000  -0.809  -0.000
 -0.000  -0.000   0.000   0.000  -0.000   0.000   0.000   0.000   0.000   0.000  -1.250  -0.000   0.000   0.000   0.000   0.533
  0.000   0.000   0.000   0.000   0.000   0.000  -0.000   0.000   0.000   0.000  -0.000   0.000   0.000   0.000  -0.000   0.000
  0.000   0.000   0.000   0.000   0.000   0.000   0.000   0.000  -0.000   0.000   0.000   0.000   0.000   0.000   0.000   0.000


------------------------ aborting loop because EDIFF is reached ----------------------------------------


 


 total charge     
 
# of ion     s       p       d       tot
----------------------------------------
  1        0.359   6.278   5.159  11.795
  2        0.298   6.302   5.232  11.832
  3        0.260   6.228   3.222   9.710
  4        1.169   1.526   0.125   2.820
------------------------------------------------
tot        2.085  20.334  13.737  36.157
 


 magnetization (x)
 
# of ion     s       p       d       tot
----------------------------------------
  1        0.031   0.001   2.737   2.769
  2       -0.010  -0.023  -1.229  -1.262
  3       -0.018  -0.023  -1.368  -1.410
  4        0.030   0.055  -0.020   0.065
------------------------------------------------
tot        0.033   0.010   0.119   0.162
 
    CHARGE:  cpu time    0.5249: real time    0.5263
    FORLOC:  cpu time    0.0030: real time    0.0034
    FORNL :  cpu time    1.6927: real time    1.6932
    STRESS:  cpu time    4.4163: real time    4.4222
    FORCOR:  cpu time    0.0610: real time    0.0611
    FORHAR:  cpu time    0.0080: real time    0.0075
    MIXING:  cpu time    0.0050: real time    0.0051
    OFIELD:  cpu time    0.0000: real time    0.0000

  FORCE on cell =-STRESS in cart. coord.  units (eV):
  Direction    XX          YY          ZZ          XY          YZ          ZX
  --------------------------------------------------------------------------------------
  Alpha Z   294.47592   294.47592   294.47592
  Ewald   -1371.23374 -1371.23374 -1371.23374    -0.00000    -0.00000    -0.00000
  Hartree   448.79868   448.79868   448.79868     0.00000     0.00000     0.00000
  E(xc)    -236.24950  -236.24950  -236.24950     0.00000     0.00000     0.00000
  Local     273.18566   273.18566   273.18566     0.00014     0.00014     0.00014
  n-local  -117.61689  -117.96607  -116.67557    -1.20966     1.27928    -1.38712
  augment   228.30135   228.30135   228.30135    -0.00012    -0.00013    -0.00013
  Kinetic   480.83731   482.02356   477.65549    -0.00100    -0.25376     0.25681
  Fock        0.00000     0.00000     0.00000     0.00000     0.00000     0.00000
  -------------------------------------------------------------------------------------
  Total       0.03097     0.03097     0.03097     0.00000    -0.00000     0.00000
  in kB       0.97149     0.97149     0.97149     0.00000    -0.00000     0.00000
  external pressure =        0.97 kB  Pullay stress =        0.00 kB


 VOLUME and BASIS-vectors are now :
 -----------------------------------------------------------------------------
  energy-cutoff  :      500.00
  volume of cell :       51.08
      direct lattice vectors                 reciprocal lattice vectors
     0.000000000  2.944992801  2.944992801    -0.169779702  0.169779702  0.169779702
     2.944992801  0.000000000  2.944992801     0.169779702 -0.169779702  0.169779702
     2.944992801  2.944992801  0.000000000     0.169779702  0.169779702 -0.169779702

  length of vectors
     4.164848760  4.164848760  4.164848760     0.294067070  0.294067070  0.294067070


 FORCES acting on ions
    electron-ion (+dipol)            ewald-force                    non-local-force                 convergence-correction
 -----------------------------------------------------------------------------------------------
   -.397E-06 -.397E-06 -.502E-06   -.390E-14 0.128E-13 0.877E-14   0.694E-17 -.347E-17 0.000E+00   0.213E-08 0.213E-08 0.213E-08
   0.305E-06 0.305E-06 0.377E-06   -.476E-13 -.516E-13 -.534E-13   0.000E+00 -.694E-17 0.000E+00   0.605E-09 0.605E-09 0.605E-09
   -.134E-07 -.134E-07 0.178E-07   0.574E-13 0.418E-13 0.623E-13   0.208E-16 0.139E-16 0.208E-16   -.129E-07 -.129E-07 -.129E-07
   0.279E-06 0.279E-06 0.305E-06   -.680E-14 -.166E-14 -.166E-13   0.607E-17 0.347E-17 0.358E-17   0.620E-09 0.620E-09 0.620E-09
 -----------------------------------------------------------------------------------------------
   0.174E-06 0.174E-06 0.198E-06   -.865E-15 0.137E-14 0.106E-14   0.338E-16 0.694E-17 0.244E-16   -.956E-08 -.956E-08 -.956E-08
 
 
 POSITION                                       TOTAL-FORCE (eV/Angst)
 -----------------------------------------------------------------------------------
      0.00000      0.00000      0.00000         0.000000      0.000000      0.000000
      1.47250      1.47250      1.47250        -0.000000     -0.000000     -0.000000
      4.41749      4.41749      4.41749         0.000000      0.000000      0.000000
      2.94499      2.94499      2.94499         0.000000      0.000000      0.000000
 -----------------------------------------------------------------------------------
    total drift:                                0.000000      0.000000      0.000000


--------------------------------------------------------------------------------------------------------



  FREE ENERGIE OF THE ION-ELECTRON SYSTEM (eV)
  ---------------------------------------------------
  free  energy   TOTEN  =       -31.98038450 eV

  energy  without entropy=      -31.97631199  energy(sigma->0) =      -31.97834824
 


--------------------------------------------------------------------------------------------------------


    POTLOK:  cpu time    0.2090: real time    0.2098


--------------------------------------------------------------------------------------------------------


     LOOP+:  cpu time  507.8268: real time  508.8812
    4ORBIT:  cpu time    0.0000: real time    0.0000
 


 total charge     
 
# of ion     s       p       d       tot
----------------------------------------
  1        0.359   6.278   5.159  11.795
  2        0.298   6.302   5.232  11.832
  3        0.260   6.228   3.222   9.710
  4        1.169   1.526   0.125   2.820
------------------------------------------------
tot        2.085  20.334  13.737  36.157
 


 magnetization (x)
 
# of ion     s       p       d       tot
----------------------------------------
  1        0.031   0.001   2.737   2.769
  2       -0.010  -0.023  -1.229  -1.262
  3       -0.018  -0.023  -1.368  -1.410
  4        0.030   0.055  -0.020   0.065
------------------------------------------------
tot        0.033   0.010   0.119   0.162
 

 total amount of memory used by VASP on root node   150818. kBytes
========================================================================

   base      :      30000. kBytes
   nonl-proj :      68305. kBytes
   fftplans  :       8118. kBytes
   grid      :       7070. kBytes
   one-center:        124. kBytes
   wavefun   :      37201. kBytes
 
  
  
 General timing and accounting informations for this job:
 ========================================================
  
                  Total CPU time used (sec):      510.134
                            User time (sec):      502.829
                          System time (sec):        7.306
                         Elapsed time (sec):      511.578
  
                   Maximum memory used (kb):      329304.
                   Average memory used (kb):           0.
  
                          Minor page faults:       360634
                          Major page faults:      2092841
                 Voluntary context switches:         1618
