OPT                                     
   2.87000000000000     
     1.000000    0.000000    0.000000
     0.000000    1.000000    0.000000
     0.000000    0.000000    1.000000
   Fe
     2
Direct
  0.000000  0.000000  0.000000
  0.500000  0.500000  0.500000
 
   32   32   32
 0.48695392013E+03 0.47202808763E+03 0.42928208599E+03 0.36453708470E+03 0.28678782437E+03
 0.20672513897E+03 0.13471713044E+03 0.78351923099E+02 0.40858283474E+02 0.20554602026E+02
 0.12229989586E+02 0.91500366731E+01 0.73924044932E+01 0.64225454116E+01 0.58815720480E+01
 0.56387840439E+01 0.55509833582E+01 0.56387840439E+01 0.58815720480E+01 0.64225454116E+01
 0.73924044932E+01 0.91500366731E+01 0.12229989586E+02 0.20554602026E+02 0.40858283474E+02
 0.78351923099E+02 0.13471713044E+03 0.20672513897E+03 0.28678782437E+03 0.36453708470E+03
 0.42928208599E+03 0.47202808763E+03 0.47202808763E+03 0.45749528756E+03 0.41587944582E+03
 0.35286986928E+03 0.27725887154E+03 0.19949716617E+03 0.12970500725E+03 0.75270378689E+02
 0.39249074262E+02 0.19900281548E+02 0.12041637948E+02 0.90778220320E+01 0.73565446806E+01
 0.64090956268E+01 0.58773213015E+01 0.56385843771E+01 0.55514630083E+01 0.56385843771E+01
 0.58773213015E+01 0.64090956268E+01 0.73565446806E+01 0.90778220320E+01 0.12041637948E+02
 0.19900281548E+02 0.39249074262E+02 0.75270378689E+02 0.12970500725E+03 0.19949716617E+03
 0.27725887154E+03 0.35286986928E+03 0.41587944582E+03 0.45749528756E+03 0.42928208599E+03
 0.41587944582E+03 0.37751536250E+03 0.31950003097E+03 0.25005094080E+03 0.17893886537E+03
 0.11555717346E+03 0.66645363946E+02 0.34812878388E+02 0.18142324181E+02 0.11533547384E+02
 0.88676272598E+01 0.72542847954E+01 0.63689627724E+01 0.58654281836E+01 0.56378028413E+01
 0.55536989968E+01 0.56378028413E+01 0.58654281836E+01 0.63689627724E+01 0.72542847954E+01
 0.88676272598E+01 0.11533547384E+02 0.18142324181E+02 0.34812878388E+02 0.66645363946E+02
 0.11555717346E+03 0.17893886537E+03 0.25005094080E+03 0.31950003097E+03 0.37751536250E+03
 0.41587944582E+03 0.36453708470E+03 0.35286986928E+03 0.31950003097E+03 0.26918036100E+03
 0.20923300011E+03 0.14835294681E+03 0.94767029883E+02 0.54239179543E+02 0.28628135921E+02
 0.15809038711E+02 0.10843732028E+02 0.85357346161E+01 0.71031469331E+01 0.63034682538E+01
 0.58493113738E+01 0.56328266290E+01 0.55587047145E+01 0.56328266290E+01 0.58493113738E+01
 0.63034682538E+01 0.71031469331E+01 0.85357346161E+01 0.10843732028E+02 0.15809038711E+02
 0.28628135921E+02 0.54239179543E+02 0.94767029883E+02 0.14835294681E+03 0.20923300011E+03
 0.26918036100E+03 0.31950003097E+03 0.35286986928E+03 0.28678782437E+03 0.27725887154E+03
 0.25005094080E+03 0.20923300011E+03 0.16101262125E+03 0.11271624793E+03 0.71075946522E+02
 0.40560498143E+02 0.22153688200E+02 0.13528987207E+02 0.10079802079E+02 0.81195903756E+01
 0.69207162109E+01 0.62190612205E+01 0.58296071238E+01 0.56245457778E+01 0.55656571965E+01
 0.56245457778E+01 0.58296071238E+01 0.62190612205E+01 0.69207162109E+01 0.81195903756E+01
 0.10079802079E+02 0.13528987207E+02 0.22153688200E+02 0.40560498143E+02 0.71075946522E+02
 0.11271624793E+03 0.16101262125E+03 0.20923300011E+03 0.25005094080E+03 0.27725887154E+03
 0.20672513897E+03 0.19949716617E+03 0.17893886537E+03 0.14835294681E+03 0.11271624793E+03
 0.77772331106E+02 0.48594441526E+02 0.28217307900E+02 0.16748112271E+02 0.11700511213E+02
 0.92737606886E+01 0.76778295992E+01 0.67187871963E+01 0.61303860890E+01 0.58022303198E+01
 0.56174167011E+01 0.55681754590E+01 0.56174167011E+01 0.58022303198E+01 0.61303860890E+01
 0.67187871963E+01 0.76778295992E+01 0.92737606886E+01 0.11700511213E+02 0.16748112271E+02
 0.28217307900E+02 0.48594441526E+02 0.77772331106E+02 0.11271624793E+03 0.14835294681E+03
 0.17893886537E+03 0.19949716617E+03 0.13471713044E+03 0.12970500725E+03 0.11555717346E+03
 0.94767029883E+02 0.71075946522E+02 0.48594441526E+02 0.30735129709E+02 0.19086360795E+02
 0.13106923894E+02 0.10286768330E+02 0.84618152929E+01 0.72652808367E+01 0.65082687186E+01
 0.60482032840E+01 0.57653980199E+01 0.56160953859E+01 0.55639984216E+01 0.56160953859E+01
 0.57653980199E+01 0.60482032840E+01 0.65082687186E+01 0.72652808367E+01 0.84618152929E+01
 0.10286768330E+02 0.13106923894E+02 0.19086360795E+02 0.30735129709E+02 0.48594441526E+02
 0.71075946522E+02 0.94767029883E+02 0.11555717346E+03 0.12970500725E+03 0.78351923099E+02
 0.75270378689E+02 0.66645363946E+02 0.54239179543E+02 0.40560498143E+02 0.28217307900E+02
 0.19086360795E+02 0.13692306250E+02 0.10895102559E+02 0.90589576949E+01 0.77506257912E+01
 0.68849950463E+01 0.63220434709E+01 0.59624199922E+01 0.57345737687E+01 0.56070343766E+01
 0.55647482988E+01 0.56070343766E+01 0.57345737687E+01 0.59624199922E+01 0.63220434709E+01
 0.68849950463E+01 0.77506257912E+01 0.90589576949E+01 0.10895102559E+02 0.13692306250E+02
 0.19086360795E+02 0.28217307900E+02 0.40560498143E+02 0.54239179543E+02 0.66645363946E+02
 0.75270378689E+02 0.40858283474E+02 0.39249074262E+02 0.34812878388E+02 0.28628135921E+02
 0.22153688200E+02 0.16748112271E+02 0.13106923894E+02 0.10895102559E+02 0.92822630718E+01
 0.80411397170E+01 0.71656037722E+01 0.65620042922E+01 0.61570327423E+01 0.58820198734E+01
 0.57039573284E+01 0.55993955831E+01 0.55661526738E+01 0.55993955831E+01 0.57039573284E+01
 0.58820198734E+01 0.61570327423E+01 0.65620042922E+01 0.71656037722E+01 0.80411397170E+01
 0.92822630718E+01 0.10895102559E+02 0.13106923894E+02 0.16748112271E+02 0.22153688200E+02
 0.28628135921E+02 0.34812878388E+02 0.39249074262E+02 0.20554602026E+02 0.19900281548E+02
 0.18142324181E+02 0.15809038711E+02 0.13528987207E+02 0.11700511213E+02 0.10286768330E+02
 0.90589576949E+01 0.80411397170E+01 0.72698269357E+01 0.67026110573E+01 0.63000369047E+01
 0.60132439265E+01 0.58124624763E+01 0.56737715104E+01 0.55926441066E+01 0.55647482988E+01
 0.55926441066E+01 0.56737715104E+01 0.58124624763E+01 0.60132439265E+01 0.63000369047E+01
 0.67026110573E+01 0.72698269357E+01 0.80411397170E+01 0.90589576949E+01 0.10286768330E+02
 0.11700511213E+02 0.13528987207E+02 0.15809038711E+02 0.18142324181E+02 0.19900281548E+02
 0.12229989586E+02 0.12041637948E+02 0.11533547384E+02 0.10843732028E+02 0.10079802079E+02
 0.92737606886E+01 0.84618152929E+01 0.77506257912E+01 0.71656037722E+01 0.67026110573E+01
 0.63526670436E+01 0.60894086778E+01 0.58930599256E+01 0.57452274486E+01 0.56437692740E+01
 0.55833057934E+01 0.55639984216E+01 0.55833057934E+01 0.56437692740E+01 0.57452274486E+01
 0.58930599256E+01 0.60894086778E+01 0.63526670436E+01 0.67026110573E+01 0.71656037722E+01
 0.77506257912E+01 0.84618152929E+01 0.92737606886E+01 0.10079802079E+02 0.10843732028E+02
 0.11533547384E+02 0.12041637948E+02 0.91500366731E+01 0.90778220320E+01 0.88676272598E+01
 0.85357346161E+01 0.81195903756E+01 0.76778295992E+01 0.72652808367E+01 0.68849950463E+01
 0.65620042922E+01 0.63000369047E+01 0.60894086778E+01 0.59223413339E+01 0.57877975675E+01
 0.56898852020E+01 0.56218668262E+01 0.55820572159E+01 0.55681754590E+01 0.55820572159E+01
 0.56218668262E+01 0.56898852020E+01 0.57877975675E+01 0.59223413339E+01 0.60894086778E+01
 0.63000369047E+01 0.65620042922E+01 0.68849950463E+01 0.72652808367E+01 0.76778295992E+01
 0.81195903756E+01 0.85357346161E+01 0.88676272598E+01 0.90778220320E+01 0.73924044932E+01
 0.73565446806E+01 0.72542847954E+01 0.71031469331E+01 0.69207162109E+01 0.67187871963E+01
 0.65082687186E+01 0.63220434709E+01 0.61570327423E+01 0.60132439265E+01 0.58930599256E+01
 0.57877975675E+01 0.57079105856E+01 0.56471198968E+01 0.56026130618E+01 0.55746718415E+01
 0.55656571965E+01 0.55746718415E+01 0.56026130618E+01 0.56471198968E+01 0.57079105856E+01
 0.57877975675E+01 0.58930599256E+01 0.60132439265E+01 0.61570327423E+01 0.63220434709E+01
 0.65082687186E+01 0.67187871963E+01 0.69207162109E+01 0.71031469331E+01 0.72542847954E+01
 0.73565446806E+01 0.64225454116E+01 0.64090956268E+01 0.63689627724E+01 0.63034682538E+01
 0.62190612205E+01 0.61303860890E+01 0.60482032840E+01 0.59624199922E+01 0.58820198734E+01
 0.58124624763E+01 0.57452274486E+01 0.56898852020E+01 0.56471198968E+01 0.56100080096E+01
 0.55814203887E+01 0.55642786087E+01 0.55587047145E+01 0.55642786087E+01 0.55814203887E+01
 0.56100080096E+01 0.56471198968E+01 0.56898852020E+01 0.57452274486E+01 0.58124624763E+01
 0.58820198734E+01 0.59624199922E+01 0.60482032840E+01 0.61303860890E+01 0.62190612205E+01
 0.63034682538E+01 0.63689627724E+01 0.64090956268E+01 0.58815720480E+01 0.58773213015E+01
 0.58654281836E+01 0.58493113738E+01 0.58296071238E+01 0.58022303198E+01 0.57653980199E+01
 0.57345737687E+01 0.57039573284E+01 0.56737715104E+01 0.56437692740E+01 0.56218668262E+01
 0.56026130618E+01 0.55814203887E+01 0.55656252467E+01 0.55562981205E+01 0.55536989968E+01
 0.55562981205E+01 0.55656252467E+01 0.55814203887E+01 0.56026130618E+01 0.56218668262E+01
 0.56437692740E+01 0.56737715104E+01 0.57039573284E+01 0.57345737687E+01 0.57653980199E+01
 0.58022303198E+01 0.58296071238E+01 0.58493113738E+01 0.58654281836E+01 0.58773213015E+01
 0.56387840439E+01 0.56385843771E+01 0.56378028413E+01 0.56328266290E+01 0.56245457778E+01
 0.56174167011E+01 0.56160953859E+01 0.56070343766E+01 0.55993955831E+01 0.55926441066E+01
 0.55833057934E+01 0.55820572159E+01 0.55746718415E+01 0.55642786087E+01 0.55562981205E+01
 0.55527137303E+01 0.55514630083E+01 0.55527137303E+01 0.55562981205E+01 0.55642786087E+01
 0.55746718415E+01 0.55820572159E+01 0.55833057934E+01 0.55926441066E+01 0.55993955831E+01
 0.56070343766E+01 0.56160953859E+01 0.56174167011E+01 0.56245457778E+01 0.56328266290E+01
 0.56378028413E+01 0.56385843771E+01 0.55509833582E+01 0.55514630083E+01 0.55536989968E+01
 0.55587047145E+01 0.55656571965E+01 0.55681754590E+01 0.55639984216E+01 0.55647482988E+01
 0.55661526738E+01 0.55647482988E+01 0.55639984216E+01 0.55681754590E+01 0.55656571965E+01
 0.55587047145E+01 0.55536989968E+01 0.55514630083E+01 0.55509833582E+01 0.55514630083E+01
 0.55536989968E+01 0.55587047145E+01 0.55656571965E+01 0.55681754590E+01 0.55639984216E+01
 0.55647482988E+01 0.55661526738E+01 0.55647482988E+01 0.55639984216E+01 0.55681754590E+01
 0.55656571965E+01 0.55587047145E+01 0.55536989968E+01 0.55514630083E+01 0.56387840439E+01
 0.56385843771E+01 0.56378028413E+01 0.56328266290E+01 0.56245457778E+01 0.56174167011E+01
 0.56160953859E+01 0.56070343766E+01 0.55993955831E+01 0.55926441066E+01 0.55833057934E+01
 0.55820572159E+01 0.55746718415E+01 0.55642786087E+01 0.55562981205E+01 0.55527137303E+01
 0.55514630083E+01 0.55527137303E+01 0.55562981205E+01 0.55642786087E+01 0.55746718415E+01
 0.55820572159E+01 0.55833057934E+01 0.55926441066E+01 0.55993955831E+01 0.56070343766E+01
 0.56160953859E+01 0.56174167011E+01 0.56245457778E+01 0.56328266290E+01 0.56378028413E+01
 0.56385843771E+01 0.58815720480E+01 0.58773213015E+01 0.58654281836E+01 0.58493113738E+01
 0.58296071238E+01 0.58022303198E+01 0.57653980199E+01 0.57345737687E+01 0.57039573284E+01
 0.56737715104E+01 0.56437692740E+01 0.56218668262E+01 0.56026130618E+01 0.55814203887E+01
 0.55656252467E+01 0.55562981205E+01 0.55536989968E+01 0.55562981205E+01 0.55656252467E+01
 0.55814203887E+01 0.56026130618E+01 0.56218668262E+01 0.56437692740E+01 0.56737715104E+01
 0.57039573284E+01 0.57345737687E+01 0.57653980199E+01 0.58022303198E+01 0.58296071238E+01
 0.58493113738E+01 0.58654281836E+01 0.58773213015E+01 0.64225454116E+01 0.64090956268E+01
 0.63689627724E+01 0.63034682538E+01 0.62190612205E+01 0.61303860890E+01 0.60482032840E+01
 0.59624199922E+01 0.58820198734E+01 0.58124624763E+01 0.57452274486E+01 0.56898852020E+01
 0.56471198968E+01 0.56100080096E+01 0.55814203887E+01 0.55642786087E+01 0.55587047145E+01
 0.55642786087E+01 0.55814203887E+01 0.56100080096E+01 0.56471198968E+01 0.56898852020E+01
 0.57452274486E+01 0.58124624763E+01 0.58820198734E+01 0.59624199922E+01 0.60482032840E+01
 0.61303860890E+01 0.62190612205E+01 0.63034682538E+01 0.63689627724E+01 0.64090956268E+01
 0.73924044932E+01 0.73565446806E+01 0.72542847954E+01 0.71031469331E+01 0.69207162109E+01
 0.67187871963E+01 0.65082687186E+01 0.63220434709E+01 0.61570327423E+01 0.60132439265E+01
 0.58930599256E+01 0.57877975675E+01 0.57079105856E+01 0.56471198968E+01 0.56026130618E+01
 0.55746718415E+01 0.55656571965E+01 0.55746718415E+01 0.56026130618E+01 0.56471198968E+01
 0.57079105856E+01 0.57877975675E+01 0.58930599256E+01 0.60132439265E+01 0.61570327423E+01
 0.63220434709E+01 0.65082687186E+01 0.67187871963E+01 0.69207162109E+01 0.71031469331E+01
 0.72542847954E+01 0.73565446806E+01 0.91500366731E+01 0.90778220320E+01 0.88676272598E+01
 0.85357346161E+01 0.81195903756E+01 0.76778295992E+01 0.72652808367E+01 0.68849950463E+01
 0.65620042922E+01 0.63000369047E+01 0.60894086778E+01 0.59223413339E+01 0.57877975675E+01
 0.56898852020E+01 0.56218668262E+01 0.55820572159E+01 0.55681754590E+01 0.55820572159E+01
 0.56218668262E+01 0.56898852020E+01 0.57877975675E+01 0.59223413339E+01 0.60894086778E+01
 0.63000369047E+01 0.65620042922E+01 0.68849950463E+01 0.72652808367E+01 0.76778295992E+01
 0.81195903756E+01 0.85357346161E+01 0.88676272598E+01 0.90778220320E+01 0.12229989586E+02
 0.12041637948E+02 0.11533547384E+02 0.10843732028E+02 0.10079802079E+02 0.92737606886E+01
 0.84618152929E+01 0.77506257912E+01 0.71656037722E+01 0.67026110573E+01 0.63526670436E+01
 0.60894086778E+01 0.58930599256E+01 0.57452274486E+01 0.56437692740E+01 0.55833057934E+01
 0.55639984216E+01 0.55833057934E+01 0.56437692740E+01 0.57452274486E+01 0.58930599256E+01
 0.60894086778E+01 0.63526670436E+01 0.67026110573E+01 0.71656037722E+01 0.77506257912E+01
 0.84618152929E+01 0.92737606886E+01 0.10079802079E+02 0.10843732028E+02 0.11533547384E+02
 0.12041637948E+02 0.20554602026E+02 0.19900281548E+02 0.18142324181E+02 0.15809038711E+02
 0.13528987207E+02 0.11700511213E+02 0.10286768330E+02 0.90589576949E+01 0.80411397170E+01
 0.72698269357E+01 0.67026110573E+01 0.63000369047E+01 0.60132439265E+01 0.58124624763E+01
 0.56737715104E+01 0.55926441066E+01 0.55647482988E+01 0.55926441066E+01 0.56737715104E+01
 0.58124624763E+01 0.60132439265E+01 0.63000369047E+01 0.67026110573E+01 0.72698269357E+01
 0.80411397170E+01 0.90589576949E+01 0.10286768330E+02 0.11700511213E+02 0.13528987207E+02
 0.15809038711E+02 0.18142324181E+02 0.19900281548E+02 0.40858283474E+02 0.39249074262E+02
 0.34812878388E+02 0.28628135921E+02 0.22153688200E+02 0.16748112271E+02 0.13106923894E+02
 0.10895102559E+02 0.92822630718E+01 0.80411397170E+01 0.71656037722E+01 0.65620042922E+01
 0.61570327423E+01 0.58820198734E+01 0.57039573284E+01 0.55993955831E+01 0.55661526738E+01
 0.55993955831E+01 0.57039573284E+01 0.58820198734E+01 0.61570327423E+01 0.65620042922E+01
 0.71656037722E+01 0.80411397170E+01 0.92822630718E+01 0.10895102559E+02 0.13106923894E+02
 0.16748112271E+02 0.22153688200E+02 0.28628135921E+02 0.34812878388E+02 0.39249074262E+02
 0.78351923099E+02 0.75270378689E+02 0.66645363946E+02 0.54239179543E+02 0.40560498143E+02
 0.28217307900E+02 0.19086360795E+02 0.13692306250E+02 0.10895102559E+02 0.90589576949E+01
 0.77506257912E+01 0.68849950463E+01 0.63220434709E+01 0.59624199922E+01 0.57345737687E+01
 0.56070343766E+01 0.55647482988E+01 0.56070343766E+01 0.57345737687E+01 0.59624199922E+01
 0.63220434709E+01 0.68849950463E+01 0.77506257912E+01 0.90589576949E+01 0.10895102559E+02
 0.13692306250E+02 0.19086360795E+02 0.28217307900E+02 0.40560498143E+02 0.54239179543E+02
 0.66645363946E+02 0.75270378689E+02 0.13471713044E+03 0.12970500725E+03 0.11555717346E+03
 0.94767029883E+02 0.71075946522E+02 0.48594441526E+02 0.30735129709E+02 0.19086360795E+02
 0.13106923894E+02 0.10286768330E+02 0.84618152929E+01 0.72652808367E+01 0.65082687186E+01
 0.60482032840E+01 0.57653980199E+01 0.56160953859E+01 0.55639984216E+01 0.56160953859E+01
 0.57653980199E+01 0.60482032840E+01 0.65082687186E+01 0.72652808367E+01 0.84618152929E+01
 0.10286768330E+02 0.13106923894E+02 0.19086360795E+02 0.30735129709E+02 0.48594441526E+02
 0.71075946522E+02 0.94767029883E+02 0.11555717346E+03 0.12970500725E+03 0.20672513897E+03
 0.19949716617E+03 0.17893886537E+03 0.14835294681E+03 0.11271624793E+03 0.77772331106E+02
 0.48594441526E+02 0.28217307900E+02 0.16748112271E+02 0.11700511213E+02 0.92737606886E+01
 0.76778295992E+01 0.67187871963E+01 0.61303860890E+01 0.58022303198E+01 0.56174167011E+01
 0.55681754590E+01 0.56174167011E+01 0.58022303198E+01 0.61303860890E+01 0.67187871963E+01
 0.76778295992E+01 0.92737606886E+01 0.11700511213E+02 0.16748112271E+02 0.28217307900E+02
 0.48594441526E+02 0.77772331106E+02 0.11271624793E+03 0.14835294681E+03 0.17893886537E+03
 0.19949716617E+03 0.28678782437E+03 0.27725887154E+03 0.25005094080E+03 0.20923300011E+03
 0.16101262125E+03 0.11271624793E+03 0.71075946522E+02 0.40560498143E+02 0.22153688200E+02
 0.13528987207E+02 0.10079802079E+02 0.81195903756E+01 0.69207162109E+01 0.62190612205E+01
 0.58296071238E+01 0.56245457778E+01 0.55656571965E+01 0.56245457778E+01 0.58296071238E+01
 0.62190612205E+01 0.69207162109E+01 0.81195903756E+01 0.10079802079E+02 0.13528987207E+02
 0.22153688200E+02 0.40560498143E+02 0.71075946522E+02 0.11271624793E+03 0.16101262125E+03
 0.20923300011E+03 0.25005094080E+03 0.27725887154E+03 0.36453708470E+03 0.35286986928E+03
 0.31950003097E+03 0.26918036100E+03 0.20923300011E+03 0.14835294681E+03 0.94767029883E+02
 0.54239179543E+02 0.28628135921E+02 0.15809038711E+02 0.10843732028E+02 0.85357346161E+01
 0.71031469331E+01 0.63034682538E+01 0.58493113738E+01 0.56328266290E+01 0.55587047145E+01
 0.56328266290E+01 0.58493113738E+01 0.63034682538E+01 0.71031469331E+01 0.85357346161E+01
 0.10843732028E+02 0.15809038711E+02 0.28628135921E+02 0.54239179543E+02 0.94767029883E+02
 0.14835294681E+03 0.20923300011E+03 0.26918036100E+03 0.31950003097E+03 0.35286986928E+03
 0.42928208599E+03 0.41587944582E+03 0.37751536250E+03 0.31950003097E+03 0.25005094080E+03
 0.17893886537E+03 0.11555717346E+03 0.66645363946E+02 0.34812878388E+02 0.18142324181E+02
 0.11533547384E+02 0.88676272598E+01 0.72542847954E+01 0.63689627724E+01 0.58654281836E+01
 0.56378028413E+01 0.55536989968E+01 0.56378028413E+01 0.58654281836E+01 0.63689627724E+01
 0.72542847954E+01 0.88676272598E+01 0.11533547384E+02 0.18142324181E+02 0.34812878388E+02
 0.66645363946E+02 0.11555717346E+03 0.17893886537E+03 0.25005094080E+03 0.31950003097E+03
 0.37751536250E+03 0.41587944582E+03 0.47202808763E+03 0.45749528756E+03 0.41587944582E+03
 0.35286986928E+03 0.27725887154E+03 0.19949716617E+03 0.12970500725E+03 0.75270378689E+02
 0.39249074262E+02 0.19900281548E+02 0.12041637948E+02 0.90778220320E+01 0.73565446806E+01
 0.64090956268E+01 0.58773213015E+01 0.56385843771E+01 0.55514630083E+01 0.56385843771E+01
 0.58773213015E+01 0.64090956268E+01 0.73565446806E+01 0.90778220320E+01 0.12041637948E+02
 0.19900281548E+02 0.39249074262E+02 0.75270378689E+02 0.12970500725E+03 0.19949716617E+03
 0.27725887154E+03 0.35286986928E+03 0.41587944582E+03 0.45749528756E+03 0.47202808763E+03
 0.45749528756E+03 0.41587944582E+03 0.35286986928E+03 0.27725887154E+03 0.19949716617E+03
 0.12970500725E+03 0.75270378689E+02 0.39249074262E+02 0.19900281548E+02 0.12041637948E+02
 0.90778220320E+01 0.73565446806E+01 0.64090956268E+01 0.58773213015E+01 0.56385843771E+01
 0.55514630083E+01 0.56385843771E+01 0.58773213015E+01 0.64090956268E+01 0.73565446806E+01
 0.90778220320E+01 0.12041637948E+02 0.19900281548E+02 0.39249074262E+02 0.75270378689E+02
 0.12970500725E+03 0.19949716617E+03 0.27725887154E+03 0.35286986928E+03 0.41587944582E+03
 0.45749528756E+03 0.45749528756E+03 0.44334478696E+03 0.40283009367E+03 0.34151256621E+03
 0.26798982293E+03 0.19247523314E+03 0.12484887907E+03 0.72299645274E+02 0.37708088112E+02
 0.19282390919E+02 0.11863904333E+02 0.90075580150E+01 0.73219591219E+01 0.63960521464E+01
 0.58736715068E+01 0.56390166392E+01 0.55527137303E+01 0.56390166392E+01 0.58736715068E+01
 0.63960521464E+01 0.73219591219E+01 0.90075580150E+01 0.11863904333E+02 0.19282390919E+02
 0.37708088112E+02 0.72299645274E+02 0.12484887907E+03 0.19247523314E+03 0.26798982293E+03
 0.34151256621E+03 0.40283009367E+03 0.44334478696E+03 0.41587944582E+03 0.40283009367E+03
 0.36548459719E+03 0.30903986777E+03 0.24153336907E+03 0.17251579690E+03 0.11115465567E+03
 0.63990991177E+02 0.33467024860E+02 0.17624427287E+02 0.11384678991E+02 0.88018283276E+01
 0.72244985392E+01 0.63578724530E+01 0.58637738016E+01 0.56389156461E+01 0.55562981205E+01
 0.56389156461E+01 0.58637738016E+01 0.63578724530E+01 0.72244985392E+01 0.88018283276E+01
 0.11384678991E+02 0.17624427287E+02 0.33467024860E+02 0.63990991177E+02 0.11115465567E+03
 0.17251579690E+03 0.24153336907E+03 0.30903986777E+03 0.36548459719E+03 0.40283009367E+03
 0.35286986928E+03 0.34151256621E+03 0.30903986777E+03 0.26010712611E+03 0.20188084900E+03
 0.14285793251E+03 0.91064688053E+02 0.52064847267E+02 0.27571038511E+02 0.15430448820E+02
 0.10729601034E+02 0.84788536559E+01 0.70799357615E+01 0.62956887845E+01 0.58507870401E+01
 0.56365864063E+01 0.55642786087E+01 0.56365864063E+01 0.58507870401E+01 0.62956887845E+01
 0.70799357615E+01 0.84788536559E+01 0.10729601034E+02 0.15430448820E+02 0.27571038511E+02
 0.52064847267E+02 0.91064688053E+02 0.14285793251E+03 0.20188084900E+03 0.26010712611E+03
 0.30903986777E+03 0.34151256621E+03 0.27725887154E+03 0.26798982293E+03 0.24153336907E+03
 0.20188084900E+03 0.15510710391E+03 0.10837679625E+03 0.68232452809E+02 0.38955777458E+02
 0.21429126783E+02 0.13290222931E+02 0.99943822437E+01 0.80751095940E+01 0.69061464068E+01
 0.62169410422E+01 0.58353870848E+01 0.56317631137E+01 0.55746718415E+01 0.56317631137E+01
 0.58353870848E+01 0.62169410422E+01 0.69061464068E+01 0.80751095940E+01 0.99943822437E+01
 0.13290222931E+02 0.21429126783E+02 0.38955777458E+02 0.68232452809E+02 0.10837679625E+03
 0.15510710391E+03 0.20188084900E+03 0.24153336907E+03 0.26798982293E+03 0.19949716617E+03
 0.19247523314E+03 0.17251579690E+03 0.14285793251E+03 0.10837679625E+03 0.74670924920E+02
 0.46642066118E+02 0.27186752108E+02 0.16331301858E+02 0.11565516514E+02 0.92092522219E+01
 0.76505306000E+01 0.67123496298E+01 0.61357363492E+01 0.58128421778E+01 0.56310234655E+01
 0.55820572159E+01 0.56310234655E+01 0.58128421778E+01 0.61357363492E+01 0.67123496298E+01
 0.76505306000E+01 0.92092522219E+01 0.11565516514E+02 0.16331301858E+02 0.27186752108E+02
 0.46642066118E+02 0.74670924920E+02 0.10837679625E+03 0.14285793251E+03 0.17251579690E+03
 0.19247523314E+03 0.12970500725E+03 0.12484887907E+03 0.11115465567E+03 0.91064688053E+02
 0.68232452809E+02 0.46642066118E+02 0.29583171520E+02 0.18540038004E+02 0.12909674865E+02
 0.10204613392E+02 0.84201235388E+01 0.72536146231E+01 0.65121378366E+01 0.60618642293E+01
 0.57824171103E+01 0.56355481677E+01 0.55833057934E+01 0.56355481677E+01 0.57824171103E+01
 0.60618642293E+01 0.65121378366E+01 0.72536146231E+01 0.84201235388E+01 0.10204613392E+02
 0.12909674865E+02 0.18540038004E+02 0.29583171520E+02 0.46642066118E+02 0.68232452809E+02
 0.91064688053E+02 0.11115465567E+03 0.12484887907E+03 0.75270378689E+02 0.72299645274E+02
 0.63990991177E+02 0.52064847267E+02 0.38955777458E+02 0.27186752108E+02 0.18540038004E+02
 0.13465709056E+02 0.10799419327E+02 0.90072496532E+01 0.77328726099E+01 0.68869674548E+01
 0.63365278738E+01 0.59827502962E+01 0.57596501670E+01 0.56336926212E+01 0.55926441066E+01
 0.56336926212E+01 0.57596501670E+01 0.59827502962E+01 0.63365278738E+01 0.68869674548E+01
 0.77328726099E+01 0.90072496532E+01 0.10799419327E+02 0.13465709056E+02 0.18540038004E+02
 0.27186752108E+02 0.38955777458E+02 0.52064847267E+02 0.63990991177E+02 0.72299645274E+02
 0.39249074262E+02 0.37708088112E+02 0.33467024860E+02 0.27571038511E+02 0.21429126783E+02
 0.16331301858E+02 0.12909674865E+02 0.10799419327E+02 0.92270162733E+01 0.80193001089E+01
 0.71657610129E+01 0.65767049903E+01 0.61809594158E+01 0.59120714629E+01 0.57360229177E+01
 0.56326656265E+01 0.55993955831E+01 0.56326656265E+01 0.57360229177E+01 0.59120714629E+01
 0.61809594158E+01 0.65767049903E+01 0.71657610129E+01 0.80193001089E+01 0.92270162733E+01
 0.10799419327E+02 0.12909674865E+02 0.16331301858E+02 0.21429126783E+02 0.27571038511E+02
 0.33467024860E+02 0.37708088112E+02 0.19900281548E+02 0.19282390919E+02 0.17624427287E+02
 0.15430448820E+02 0.13290222931E+02 0.11565516514E+02 0.10204613392E+02 0.90072496532E+01
 0.80193001089E+01 0.72692357974E+01 0.67174478278E+01 0.63260599573E+01 0.60453109426E+01
 0.58471554061E+01 0.57121795858E+01 0.56336926212E+01 0.56070343766E+01 0.56336926212E+01
 0.57121795858E+01 0.58471554061E+01 0.60453109426E+01 0.63260599573E+01 0.67174478278E+01
 0.72692357974E+01 0.80193001089E+01 0.90072496532E+01 0.10204613392E+02 0.11565516514E+02
 0.13290222931E+02 0.15430448820E+02 0.17624427287E+02 0.19282390919E+02 0.12041637948E+02
 0.11863904333E+02 0.11384678991E+02 0.10729601034E+02 0.99943822437E+01 0.92092522219E+01
 0.84201235388E+01 0.77328726099E+01 0.71657610129E+01 0.67174478278E+01 0.63792700745E+01
 0.61221797238E+01 0.59311832937E+01 0.57917193261E+01 0.56945425494E+01 0.56355481677E+01
 0.56160953859E+01 0.56355481677E+01 0.56945425494E+01 0.57917193261E+01 0.59311832937E+01
 0.61221797238E+01 0.63792700745E+01 0.67174478278E+01 0.71657610129E+01 0.77328726099E+01
 0.84201235388E+01 0.92092522219E+01 0.99943822437E+01 0.10729601034E+02 0.11384678991E+02
 0.11863904333E+02 0.90778220320E+01 0.90075580150E+01 0.88018283276E+01 0.84788536559E+01
 0.80751095940E+01 0.76505306000E+01 0.72536146231E+01 0.68869674548E+01 0.65767049903E+01
 0.63260599573E+01 0.61221797238E+01 0.59621995351E+01 0.58386206672E+01 0.57419683304E+01
 0.56721541073E+01 0.56310234655E+01 0.56174167011E+01 0.56310234655E+01 0.56721541073E+01
 0.57419683304E+01 0.58386206672E+01 0.59621995351E+01 0.61221797238E+01 0.63260599573E+01
 0.65767049903E+01 0.68869674548E+01 0.72536146231E+01 0.76505306000E+01 0.80751095940E+01
 0.84788536559E+01 0.88018283276E+01 0.90075580150E+01 0.73565446806E+01 0.73219591219E+01
 0.72244985392E+01 0.70799357615E+01 0.69061464068E+01 0.67123496298E+01 0.65121378366E+01
 0.63365278738E+01 0.61809594158E+01 0.60453109426E+01 0.59311832937E+01 0.58386206672E+01
 0.57590762922E+01 0.56962264955E+01 0.56548999252E+01 0.56317631137E+01 0.56245457778E+01
 0.56317631137E+01 0.56548999252E+01 0.56962264955E+01 0.57590762922E+01 0.58386206672E+01
 0.59311832937E+01 0.60453109426E+01 0.61809594158E+01 0.63365278738E+01 0.65121378366E+01
 0.67123496298E+01 0.69061464068E+01 0.70799357615E+01 0.72244985392E+01 0.73219591219E+01
 0.64090956268E+01 0.63960521464E+01 0.63578724530E+01 0.62956887845E+01 0.62169410422E+01
 0.61357363492E+01 0.60618642293E+01 0.59827502962E+01 0.59120714629E+01 0.58471554061E+01
 0.57917193261E+01 0.57419683304E+01 0.56962264955E+01 0.56658027017E+01 0.56466222132E+01
 0.56365864063E+01 0.56328266290E+01 0.56365864063E+01 0.56466222132E+01 0.56658027017E+01
 0.56962264955E+01 0.57419683304E+01 0.57917193261E+01 0.58471554061E+01 0.59120714629E+01
 0.59827502962E+01 0.60618642293E+01 0.61357363492E+01 0.62169410422E+01 0.62956887845E+01
 0.63578724530E+01 0.63960521464E+01 0.58773213015E+01 0.58736715068E+01 0.58637738016E+01
 0.58507870401E+01 0.58353870848E+01 0.58128421778E+01 0.57824171103E+01 0.57596501670E+01
 0.57360229177E+01 0.57121795858E+01 0.56945425494E+01 0.56721541073E+01 0.56548999252E+01
 0.56466222132E+01 0.56421297082E+01 0.56389156461E+01 0.56378028413E+01 0.56389156461E+01
 0.56421297082E+01 0.56466222132E+01 0.56548999252E+01 0.56721541073E+01 0.56945425494E+01
 0.57121795858E+01 0.57360229177E+01 0.57596501670E+01 0.57824171103E+01 0.58128421778E+01
 0.58353870848E+01 0.58507870401E+01 0.58637738016E+01 0.58736715068E+01 0.56385843771E+01
 0.56390166392E+01 0.56389156461E+01 0.56365864063E+01 0.56317631137E+01 0.56310234655E+01
 0.56355481677E+01 0.56336926212E+01 0.56326656265E+01 0.56336926212E+01 0.56355481677E+01
 0.56310234655E+01 0.56317631137E+01 0.56365864063E+01 0.56389156461E+01 0.56390166392E+01
 0.56385843771E+01 0.56390166392E+01 0.56389156461E+01 0.56365864063E+01 0.56317631137E+01
 0.56310234655E+01 0.56355481677E+01 0.56336926212E+01 0.56326656265E+01 0.56336926212E+01
 0.56355481677E+01 0.56310234655E+01 0.56317631137E+01 0.56365864063E+01 0.56389156461E+01
 0.56390166392E+01 0.55514630083E+01 0.55527137303E+01 0.55562981205E+01 0.55642786087E+01
 0.55746718415E+01 0.55820572159E+01 0.55833057934E+01 0.55926441066E+01 0.55993955831E+01
 0.56070343766E+01 0.56160953859E+01 0.56174167011E+01 0.56245457778E+01 0.56328266290E+01
 0.56378028413E+01 0.56385843771E+01 0.56387840439E+01 0.56385843771E+01 0.56378028413E+01
 0.56328266290E+01 0.56245457778E+01 0.56174167011E+01 0.56160953859E+01 0.56070343766E+01
 0.55993955831E+01 0.55926441066E+01 0.55833057934E+01 0.55820572159E+01 0.55746718415E+01
 0.55642786087E+01 0.55562981205E+01 0.55527137303E+01 0.56385843771E+01 0.56390166392E+01
 0.56389156461E+01 0.56365864063E+01 0.56317631137E+01 0.56310234655E+01 0.56355481677E+01
 0.56336926212E+01 0.56326656265E+01 0.56336926212E+01 0.56355481677E+01 0.56310234655E+01
 0.56317631137E+01 0.56365864063E+01 0.56389156461E+01 0.56390166392E+01 0.56385843771E+01
 0.56390166392E+01 0.56389156461E+01 0.56365864063E+01 0.56317631137E+01 0.56310234655E+01
 0.56355481677E+01 0.56336926212E+01 0.56326656265E+01 0.56336926212E+01 0.56355481677E+01
 0.56310234655E+01 0.56317631137E+01 0.56365864063E+01 0.56389156461E+01 0.56390166392E+01
 0.58773213015E+01 0.58736715068E+01 0.58637738016E+01 0.58507870401E+01 0.58353870848E+01
 0.58128421778E+01 0.57824171103E+01 0.57596501670E+01 0.57360229177E+01 0.57121795858E+01
 0.56945425494E+01 0.56721541073E+01 0.56548999252E+01 0.56466222132E+01 0.56421297082E+01
 0.56389156461E+01 0.56378028413E+01 0.56389156461E+01 0.56421297082E+01 0.56466222132E+01
 0.56548999252E+01 0.56721541073E+01 0.56945425494E+01 0.57121795858E+01 0.57360229177E+01
 0.57596501670E+01 0.57824171103E+01 0.58128421778E+01 0.58353870848E+01 0.58507870401E+01