 vasp.5.4.4.18Apr17-6-g9f103f2a35 (build Mar 26 2021 11:21:13) complex          
  
 executed on             LinuxIFC date 2022.01.04  10:10:20
 running on    4 total cores
 distrk:  each k-point on    4 cores,    1 groups
 distr:  one band on NCORES_PER_BAND=   1 cores,    4 groups


--------------------------------------------------------------------------------------------------------


 INCAR:
 POTCAR:    PAW_PBE Fe_pv 02Aug2007               
 POTCAR:    PAW_PBE Fe_pv 02Aug2007               
   VRHFIN =Fe:  3pd7s1                                                          
   LEXCH  = PE                                                                  
   EATOM  =  2457.4239 eV,  180.6156 Ry                                         
                                                                                
   TITEL  = PAW_PBE Fe_pv 02Aug2007                                             
   LULTRA =        F    use ultrasoft PP ?                                      
   IUNSCR =        1    unscreen: 0-lin 1-nonlin 2-no                           
   RPACOR =    1.750    partial core radius                                     
   POMASS =   55.847; ZVAL   =   14.000    mass and valenz                      
   RCORE  =    2.200    outmost cutoff radius                                   
   RWIGS  =    2.200; RWIGS  =    1.164    wigner-seitz radius (au A)           
   ENMAX  =  293.238; ENMIN  =  219.928 eV                                      
   ICORE  =        3    local potential                                         
   LCOR   =        T    correct aug charges                                     
   LPAW   =        T    paw PP                                                  
   EAUG   =  578.342                                                            
   DEXC   =    0.000                                                            
   RMAX   =    2.249    core radius for proj-oper                               
   RAUG   =    1.300    factor for augmentation sphere                          
   RDEP   =    2.296    radius for radial grids                                 
   RDEPT  =    1.766    core radius for aug-charge                              
                                                                                
   Atomic configuration                                                         
    8 entries                                                                   
     n  l   j            E        occ.                                          
     1  0  0.50     -6993.8440   2.0000                                         
     2  0  0.50      -814.6047   2.0000                                         
     2  1  1.50      -693.3689   6.0000                                         
     3  0  0.50       -89.4732   2.0000                                         
     3  1  1.50       -55.6373   6.0000                                         
     3  2  2.50        -3.8151   7.0000                                         
     4  0  0.50        -4.2551   1.0000                                         
     4  3  2.50        -1.3606   0.0000                                         
   Description                                                                  
     l       E           TYP  RCUT    TYP  RCUT                                 
     1    -55.6372668     23  2.000                                             
     1     -5.4423304     23  2.000                                             
     2     -3.8151096     23  2.200                                             
     2     -5.1756922     23  2.200                                             
     0     -4.2550951     23  2.200                                             
     0     27.2116520     23  2.200                                             
     3     -1.3605826     23  2.200                                             
  local pseudopotential read in
  partial core-charges read in
  partial kinetic energy density read in
  atomic valenz-charges read in
  non local Contribution for L=           1  read in
    real space projection operators read in
  non local Contribution for L=           1  read in
    real space projection operators read in
  non local Contribution for L=           2  read in
    real space projection operators read in
  non local Contribution for L=           2  read in
    real space projection operators read in
  non local Contribution for L=           0  read in
    real space projection operators read in
  non local Contribution for L=           0  read in
    real space projection operators read in
    PAW grid and wavefunctions read in
 
   number of l-projection  operators is LMAX  =           6
   number of lm-projection operators is LMMAX =          18
 
  PAW_PBE Fe_pv 02Aug2007               :
 energy of atom  1       EATOM=-2457.4239
 kinetic energy error for atom=    0.0060 (will be added to EATOM!!)
 
 
 POSCAR: Fe                                      
  positions in direct lattice
  velocities in cartesian coordinates
 exchange correlation table for  LEXCH =        8
   RHO(1)=    0.500       N(1)  =     2000
   RHO(2)=  100.500       N(2)  =     4000
 


--------------------------------------------------------------------------------------------------------


 ion  position               nearest neighbor table
   1  0.000  0.000  0.000-   2 2.49   2 2.49   2 2.49   2 2.49   2 2.49   2 2.49   2 2.49   2 2.49

   2  0.500  0.500  0.500-   1 2.49   1 2.49   1 2.49   1 2.49   1 2.49   1 2.49   1 2.49   1 2.49

 
  LATTYP: Found a simple cubic cell.
 ALAT       =     2.8700000000
  
  Lattice vectors:
  
 A1 = (   2.8700000000,   0.0000000000,   0.0000000000)
 A2 = (   0.0000000000,   2.8700000000,   0.0000000000)
 A3 = (   0.0000000000,   0.0000000000,   2.8700000000)


Analysis of symmetry for initial positions (statically):
=====================================================================
 Subroutine PRICEL returns following result:
 
  LATTYP: Found a body centered cubic cell.
 ALAT       =     2.8700000000
  
  Lattice vectors:
  
 A1 = (   1.4350000000,   1.4350000000,   1.4350000000)
 A2 = (   1.4350000000,  -1.4350000000,  -1.4350000000)
 A3 = (  -1.4350000000,   1.4350000000,  -1.4350000000)
 
   2 primitive cells build up your supercell.
 

 Routine SETGRP: Setting up the symmetry group for a 
 simple cubic supercell.


 Subroutine GETGRP returns: Found 48 space group operations
 (whereof 48 operations were pure point group operations)
 out of a pool of 48 trial point group operations.


The static configuration has the point symmetry O_h .


Analysis of symmetry for dynamics (positions and initial velocities):
=====================================================================
 Subroutine PRICEL returns following result:
 
  LATTYP: Found a body centered cubic cell.
 ALAT       =     2.8700000000
  
  Lattice vectors:
  
 A1 = (   1.4350000000,   1.4350000000,   1.4350000000)
 A2 = (   1.4350000000,  -1.4350000000,  -1.4350000000)
 A3 = (  -1.4350000000,   1.4350000000,  -1.4350000000)
 
   2 primitive cells build up your supercell.
 

 Routine SETGRP: Setting up the symmetry group for a 
 simple cubic supercell.


 Subroutine GETGRP returns: Found 48 space group operations
 (whereof 48 operations were pure point group operations)
 out of a pool of 48 trial point group operations.


The dynamic configuration has the point symmetry O_h .


Analysis of structural, dynamic, and magnetic symmetry:
=====================================================================
 Subroutine PRICEL returns following result:
 
  LATTYP: Found a body centered cubic cell.
 ALAT       =     2.8700000000
  
  Lattice vectors:
  
 A1 = (   1.4350000000,   1.4350000000,   1.4350000000)
 A2 = (   1.4350000000,  -1.4350000000,  -1.4350000000)
 A3 = (  -1.4350000000,   1.4350000000,  -1.4350000000)
 
   2 primitive cells build up your supercell.
 

 Routine SETGRP: Setting up the symmetry group for a 
 simple cubic supercell.


 Subroutine GETGRP returns: Found 48 space group operations
 (whereof 48 operations were pure point group operations)
 out of a pool of 48 trial point group operations.


The magnetic configuration has the point symmetry O_h .


 Subroutine INISYM returns: Found 48 space group operations
 (whereof 48 operations are pure point group operations),
 and found     2 'primitive' translations

 
 
 KPOINTS: Automatic Mesh # Generates Automatically

Automatic generation of k-mesh.
Space group operators:
 irot       det(A)        alpha          n_x          n_y          n_z        tau_x        tau_y        tau_z
    1     1.000000     0.000000     1.000000     0.000000     0.000000     0.000000     0.000000     0.000000
    2    -1.000000     0.000000     1.000000     0.000000     0.000000     0.000000     0.000000     0.000000
    3     1.000000   120.000000    -0.577350    -0.577350    -0.577350     0.000000     0.000000     0.000000
    4    -1.000000   120.000000    -0.577350    -0.577350    -0.577350     0.000000     0.000000     0.000000
    5     1.000000   120.000000     0.577350     0.577350     0.577350     0.000000     0.000000     0.000000
    6    -1.000000   120.000000     0.577350     0.577350     0.577350     0.000000     0.000000     0.000000
    7     1.000000    90.000000     0.000000     0.000000    -1.000000     0.000000     0.000000     0.000000
    8    -1.000000    90.000000     0.000000     0.000000    -1.000000     0.000000     0.000000     0.000000
    9     1.000000   180.000000     0.000000     0.707107     0.707107     0.000000     0.000000     0.000000
   10    -1.000000   180.000000     0.000000     0.707107     0.707107     0.000000     0.000000     0.000000
   11     1.000000    90.000000     0.000000     1.000000     0.000000     0.000000     0.000000     0.000000
   12    -1.000000    90.000000     0.000000     1.000000     0.000000     0.000000     0.000000     0.000000
   13     1.000000   180.000000     0.000000     0.000000     1.000000     0.000000     0.000000     0.000000
   14    -1.000000   180.000000     0.000000     0.000000     1.000000     0.000000     0.000000     0.000000
   15     1.000000   120.000000    -0.577350     0.577350     0.577350     0.000000     0.000000     0.000000
   16    -1.000000   120.000000    -0.577350     0.577350     0.577350     0.000000     0.000000     0.000000
   17     1.000000   120.000000    -0.577350     0.577350    -0.577350     0.000000     0.000000     0.000000
   18    -1.000000   120.000000    -0.577350     0.577350    -0.577350     0.000000     0.000000     0.000000
   19     1.000000    90.000000     0.000000     0.000000     1.000000     0.000000     0.000000     0.000000
   20    -1.000000    90.000000     0.000000     0.000000     1.000000     0.000000     0.000000     0.000000
   21     1.000000    90.000000    -1.000000     0.000000     0.000000     0.000000     0.000000     0.000000
   22    -1.000000    90.000000    -1.000000     0.000000     0.000000     0.000000     0.000000     0.000000
   23     1.000000   180.000000     0.707107     0.000000     0.707107     0.000000     0.000000     0.000000
   24    -1.000000   180.000000     0.707107     0.000000     0.707107     0.000000     0.000000     0.000000
   25     1.000000   120.000000     0.577350    -0.577350     0.577350     0.000000     0.000000     0.000000
   26    -1.000000   120.000000     0.577350    -0.577350     0.577350     0.000000     0.000000     0.000000
   27     1.000000   120.000000    -0.577350    -0.577350     0.577350     0.000000     0.000000     0.000000
   28    -1.000000   120.000000    -0.577350    -0.577350     0.577350     0.000000     0.000000     0.000000
   29     1.000000   180.000000     1.000000     0.000000     0.000000     0.000000     0.000000     0.000000
   30    -1.000000   180.000000     1.000000     0.000000     0.000000     0.000000     0.000000     0.000000
   31     1.000000    90.000000     0.000000    -1.000000     0.000000     0.000000     0.000000     0.000000
   32    -1.000000    90.000000     0.000000    -1.000000     0.000000     0.000000     0.000000     0.000000
   33     1.000000   180.000000     0.707107     0.707107     0.000000     0.000000     0.000000     0.000000
   34    -1.000000   180.000000     0.707107     0.707107     0.000000     0.000000     0.000000     0.000000
   35     1.000000    90.000000     1.000000     0.000000     0.000000     0.000000     0.000000     0.000000
   36    -1.000000    90.000000     1.000000     0.000000     0.000000     0.000000     0.000000     0.000000
   37     1.000000   120.000000     0.577350    -0.577350    -0.577350     0.000000     0.000000     0.000000
   38    -1.000000   120.000000     0.577350    -0.577350    -0.577350     0.000000     0.000000     0.000000
   39     1.000000   180.000000     0.000000     1.000000     0.000000     0.000000     0.000000     0.000000
   40    -1.000000   180.000000     0.000000     1.000000     0.000000     0.000000     0.000000     0.000000
   41     1.000000   120.000000     0.577350     0.577350    -0.577350     0.000000     0.000000     0.000000
   42    -1.000000   120.000000     0.577350     0.577350    -0.577350     0.000000     0.000000     0.000000
   43     1.000000   180.000000     0.000000    -0.707107     0.707107     0.000000     0.000000     0.000000
   44    -1.000000   180.000000     0.000000    -0.707107     0.707107     0.000000     0.000000     0.000000
   45     1.000000   180.000000     0.707107    -0.707107     0.000000     0.000000     0.000000     0.000000
   46    -1.000000   180.000000     0.707107    -0.707107     0.000000     0.000000     0.000000     0.000000
   47     1.000000   180.000000     0.707107     0.000000    -0.707107     0.000000     0.000000     0.000000
   48    -1.000000   180.000000     0.707107     0.000000    -0.707107     0.000000     0.000000     0.000000
 
 Subroutine IBZKPT returns following result:
 ===========================================
 
 Found    286 irreducible k-points:
 
 Following reciprocal coordinates:
            Coordinates               Weight
  0.000000  0.000000  0.000000      1.000000
  0.047619  0.000000  0.000000      6.000000
  0.095238  0.000000  0.000000      6.000000
  0.142857  0.000000  0.000000      6.000000
  0.190476  0.000000  0.000000      6.000000
  0.238095  0.000000  0.000000      6.000000
  0.285714  0.000000  0.000000      6.000000
  0.333333  0.000000  0.000000      6.000000
  0.380952  0.000000  0.000000      6.000000
  0.428571  0.000000  0.000000      6.000000
  0.476190  0.000000  0.000000      6.000000
  0.047619  0.047619  0.000000     12.000000
  0.095238  0.047619  0.000000     24.000000
  0.142857  0.047619  0.000000     24.000000
  0.190476  0.047619  0.000000     24.000000
  0.238095  0.047619  0.000000     24.000000
  0.285714  0.047619  0.000000     24.000000
  0.333333  0.047619  0.000000     24.000000
  0.380952  0.047619  0.000000     24.000000
  0.428571  0.047619  0.000000     24.000000
  0.476190  0.047619  0.000000     24.000000
  0.095238  0.095238  0.000000     12.000000
  0.142857  0.095238  0.000000     24.000000
  0.190476  0.095238  0.000000     24.000000
  0.238095  0.095238  0.000000     24.000000
  0.285714  0.095238  0.000000     24.000000
  0.333333  0.095238  0.000000     24.000000
  0.380952  0.095238  0.000000     24.000000
  0.428571  0.095238  0.000000     24.000000
  0.476190  0.095238  0.000000     24.000000
  0.142857  0.142857  0.000000     12.000000
  0.190476  0.142857  0.000000     24.000000
  0.238095  0.142857  0.000000     24.000000
  0.285714  0.142857  0.000000     24.000000
  0.333333  0.142857  0.000000     24.000000
  0.380952  0.142857  0.000000     24.000000
  0.428571  0.142857  0.000000     24.000000
  0.476190  0.142857  0.000000     24.000000
  0.190476  0.190476  0.000000     12.000000
  0.238095  0.190476  0.000000     24.000000
  0.285714  0.190476  0.000000     24.000000
  0.333333  0.190476  0.000000     24.000000
  0.380952  0.190476  0.000000     24.000000
  0.428571  0.190476  0.000000     24.000000
  0.476190  0.190476  0.000000     24.000000
  0.238095  0.238095  0.000000     12.000000
  0.285714  0.238095  0.000000     24.000000
  0.333333  0.238095  0.000000     24.000000
  0.380952  0.238095  0.000000     24.000000
  0.428571  0.238095  0.000000     24.000000
  0.476190  0.238095  0.000000     24.000000
  0.285714  0.285714  0.000000     12.000000
  0.333333  0.285714  0.000000     24.000000
  0.380952  0.285714  0.000000     24.000000
  0.428571  0.285714  0.000000     24.000000
  0.476190  0.285714  0.000000     24.000000
  0.333333  0.333333  0.000000     12.000000
  0.380952  0.333333  0.000000     24.000000
  0.428571  0.333333  0.000000     24.000000
  0.476190  0.333333  0.000000     24.000000
  0.380952  0.380952  0.000000     12.000000
  0.428571  0.380952  0.000000     24.000000
  0.476190  0.380952  0.000000     24.000000
  0.428571  0.428571  0.000000     12.000000
  0.476190  0.428571  0.000000     24.000000
  0.476190  0.476190  0.000000     12.000000
  0.047619  0.047619  0.047619      8.000000
  0.095238  0.047619  0.047619     24.000000
  0.142857  0.047619  0.047619     24.000000
  0.190476  0.047619  0.047619     24.000000
  0.238095  0.047619  0.047619     24.000000
  0.285714  0.047619  0.047619     24.000000
  0.333333  0.047619  0.047619     24.000000
  0.380952  0.047619  0.047619     24.000000
  0.428571  0.047619  0.047619     24.000000
  0.476190  0.047619  0.047619     24.000000
  0.095238  0.095238  0.047619     24.000000
  0.142857  0.095238  0.047619     48.000000
  0.190476  0.095238  0.047619     48.000000
  0.238095  0.095238  0.047619     48.000000
  0.285714  0.095238  0.047619     48.000000
  0.333333  0.095238  0.047619     48.000000
  0.380952  0.095238  0.047619     48.000000
  0.428571  0.095238  0.047619     48.000000
  0.476190  0.095238  0.047619     48.000000
  0.142857  0.142857  0.047619     24.000000
  0.190476  0.142857  0.047619     48.000000
  0.238095  0.142857  0.047619     48.000000
  0.285714  0.142857  0.047619     48.000000
  0.333333  0.142857  0.047619     48.000000
  0.380952  0.142857  0.047619     48.000000
  0.428571  0.142857  0.047619     48.000000
  0.476190  0.142857  0.047619     48.000000
  0.190476  0.190476  0.047619     24.000000
  0.238095  0.190476  0.047619     48.000000
  0.285714  0.190476  0.047619     48.000000
  0.333333  0.190476  0.047619     48.000000
  0.380952  0.190476  0.047619     48.000000
  0.428571  0.190476  0.047619     48.000000
  0.476190  0.190476  0.047619     48.000000
  0.238095  0.238095  0.047619     24.000000
  0.285714  0.238095  0.047619     48.000000
  0.333333  0.238095  0.047619     48.000000
  0.380952  0.238095  0.047619     48.000000
  0.428571  0.238095  0.047619     48.000000
  0.476190  0.238095  0.047619     48.000000
  0.285714  0.285714  0.047619     24.000000
  0.333333  0.285714  0.047619     48.000000
  0.380952  0.285714  0.047619     48.000000
  0.428571  0.285714  0.047619     48.000000
  0.476190  0.285714  0.047619     48.000000
  0.333333  0.333333  0.047619     24.000000
  0.380952  0.333333  0.047619     48.000000
  0.428571  0.333333  0.047619     48.000000
  0.476190  0.333333  0.047619     48.000000
  0.380952  0.380952  0.047619     24.000000
  0.428571  0.380952  0.047619     48.000000
  0.476190  0.380952  0.047619     48.000000
  0.428571  0.428571  0.047619     24.000000
  0.476190  0.428571  0.047619     48.000000
  0.476190  0.476190  0.047619     24.000000
  0.095238  0.095238  0.095238      8.000000
  0.142857  0.095238  0.095238     24.000000
  0.190476  0.095238  0.095238     24.000000
  0.238095  0.095238  0.095238     24.000000
  0.285714  0.095238  0.095238     24.000000
  0.333333  0.095238  0.095238     24.000000
  0.380952  0.095238  0.095238     24.000000
  0.428571  0.095238  0.095238     24.000000
  0.476190  0.095238  0.095238     24.000000
  0.142857  0.142857  0.095238     24.000000
  0.190476  0.142857  0.095238     48.000000
  0.238095  0.142857  0.095238     48.000000
  0.285714  0.142857  0.095238     48.000000
  0.333333  0.142857  0.095238     48.000000
  0.380952  0.142857  0.095238     48.000000
  0.428571  0.142857  0.095238     48.000000
  0.476190  0.142857  0.095238     48.000000
  0.190476  0.190476  0.095238     24.000000
  0.238095  0.190476  0.095238     48.000000
  0.285714  0.190476  0.095238     48.000000
  0.333333  0.190476  0.095238     48.000000
  0.380952  0.190476  0.095238     48.000000
  0.428571  0.190476  0.095238     48.000000
  0.476190  0.190476  0.095238     48.000000
  0.238095  0.238095  0.095238     24.000000
  0.285714  0.238095  0.095238     48.000000
  0.333333  0.238095  0.095238     48.000000
  0.380952  0.238095  0.095238     48.000000
  0.428571  0.238095  0.095238     48.000000
  0.476190  0.238095  0.095238     48.000000
  0.285714  0.285714  0.095238     24.000000
  0.333333  0.285714  0.095238     48.000000
  0.380952  0.285714  0.095238     48.000000
  0.428571  0.285714  0.095238     48.000000
  0.476190  0.285714  0.095238     48.000000
  0.333333  0.333333  0.095238     24.000000
  0.380952  0.333333  0.095238     48.000000
  0.428571  0.333333  0.095238     48.000000
  0.476190  0.333333  0.095238     48.000000
  0.380952  0.380952  0.095238     24.000000
  0.428571  0.380952  0.095238     48.000000
  0.476190  0.380952  0.095238     48.000000
  0.428571  0.428571  0.095238     24.000000
  0.476190  0.428571  0.095238     48.000000
  0.476190  0.476190  0.095238     24.000000
  0.142857  0.142857  0.142857      8.000000
  0.190476  0.142857  0.142857     24.000000
  0.238095  0.142857  0.142857     24.000000
  0.285714  0.142857  0.142857     24.000000
  0.333333  0.142857  0.142857     24.000000
  0.380952  0.142857  0.142857     24.000000
  0.428571  0.142857  0.142857     24.000000
  0.476190  0.142857  0.142857     24.000000
  0.190476  0.190476  0.142857     24.000000
  0.238095  0.190476  0.142857     48.000000
  0.285714  0.190476  0.142857     48.000000
  0.333333  0.190476  0.142857     48.000000
  0.380952  0.190476  0.142857     48.000000
  0.428571  0.190476  0.142857     48.000000
  0.476190  0.190476  0.142857     48.000000
  0.238095  0.238095  0.142857     24.000000
  0.285714  0.238095  0.142857     48.000000
  0.333333  0.238095  0.142857     48.000000
  0.380952  0.238095  0.142857     48.000000
  0.428571  0.238095  0.142857     48.000000
  0.476190  0.238095  0.142857     48.000000
  0.285714  0.285714  0.142857     24.000000
  0.333333  0.285714  0.142857     48.000000
  0.380952  0.285714  0.142857     48.000000
  0.428571  0.285714  0.142857     48.000000
  0.476190  0.285714  0.142857     48.000000
  0.333333  0.333333  0.142857     24.000000
  0.380952  0.333333  0.142857     48.000000
  0.428571  0.333333  0.142857     48.000000
  0.476190  0.333333  0.142857     48.000000
  0.380952  0.380952  0.142857     24.000000
  0.428571  0.380952  0.142857     48.000000
  0.476190  0.380952  0.142857     48.000000
  0.428571  0.428571  0.142857     24.000000
  0.476190  0.428571  0.142857     48.000000
  0.476190  0.476190  0.142857     24.000000
  0.190476  0.190476  0.190476      8.000000
  0.238095  0.190476  0.190476     24.000000
  0.285714  0.190476  0.190476     24.000000
  0.333333  0.190476  0.190476     24.000000
  0.380952  0.190476  0.190476     24.000000
  0.428571  0.190476  0.190476     24.000000
  0.476190  0.190476  0.190476     24.000000
  0.238095  0.238095  0.190476     24.000000
  0.285714  0.238095  0.190476     48.000000
  0.333333  0.238095  0.190476     48.000000
  0.380952  0.238095  0.190476     48.000000
  0.428571  0.238095  0.190476     48.000000
  0.476190  0.238095  0.190476     48.000000
  0.285714  0.285714  0.190476     24.000000
  0.333333  0.285714  0.190476     48.000000
  0.380952  0.285714  0.190476     48.000000
  0.428571  0.285714  0.190476     48.000000
  0.476190  0.285714  0.190476     48.000000
  0.333333  0.333333  0.190476     24.000000
  0.380952  0.333333  0.190476     48.000000
  0.428571  0.333333  0.190476     48.000000
  0.476190  0.333333  0.190476     48.000000
  0.380952  0.380952  0.190476     24.000000
  0.428571  0.380952  0.190476     48.000000
  0.476190  0.380952  0.190476     48.000000
  0.428571  0.428571  0.190476     24.000000
  0.476190  0.428571  0.190476     48.000000
  0.476190  0.476190  0.190476     24.000000
  0.238095  0.238095  0.238095      8.000000
  0.285714  0.238095  0.238095     24.000000
  0.333333  0.238095  0.238095     24.000000
  0.380952  0.238095  0.238095     24.000000
  0.428571  0.238095  0.238095     24.000000
  0.476190  0.238095  0.238095     24.000000
  0.285714  0.285714  0.238095     24.000000
  0.333333  0.285714  0.238095     48.000000
  0.380952  0.285714  0.238095     48.000000
  0.428571  0.285714  0.238095     48.000000
  0.476190  0.285714  0.238095     48.000000
  0.333333  0.333333  0.238095     24.000000
  0.380952  0.333333  0.238095     48.000000
  0.428571  0.333333  0.238095     48.000000
  0.476190  0.333333  0.238095     48.000000
  0.380952  0.380952  0.238095     24.000000
  0.428571  0.380952  0.238095     48.000000
  0.476190  0.380952  0.238095     48.000000
  0.428571  0.428571  0.238095     24.000000
  0.476190  0.428571  0.238095     48.000000
  0.476190  0.476190  0.238095     24.000000
  0.285714  0.285714  0.285714      8.000000
  0.333333  0.285714  0.285714     24.000000
  0.380952  0.285714  0.285714     24.000000
  0.428571  0.285714  0.285714     24.000000
  0.476190  0.285714  0.285714     24.000000
  0.333333  0.333333  0.285714     24.000000
  0.380952  0.333333  0.285714     48.000000
  0.428571  0.333333  0.285714     48.000000
  0.476190  0.333333  0.285714     48.000000
  0.380952  0.380952  0.285714     24.000000
  0.428571  0.380952  0.285714     48.000000
  0.476190  0.380952  0.285714     48.000000
  0.428571  0.428571  0.285714     24.000000
  0.476190  0.428571  0.285714     48.000000
  0.476190  0.476190  0.285714     24.000000
  0.333333  0.333333  0.333333      8.000000
  0.380952  0.333333  0.333333     24.000000
  0.428571  0.333333  0.333333     24.000000
  0.476190  0.333333  0.333333     24.000000
  0.380952  0.380952  0.333333     24.000000
  0.428571  0.380952  0.333333     48.000000
  0.476190  0.380952  0.333333     48.000000
  0.428571  0.428571  0.333333     24.000000
  0.476190  0.428571  0.333333     48.000000
  0.476190  0.476190  0.333333     24.000000
  0.380952  0.380952  0.380952      8.000000
  0.428571  0.380952  0.380952     24.000000
  0.476190  0.380952  0.380952     24.000000
  0.428571  0.428571  0.380952     24.000000
  0.476190  0.428571  0.380952     48.000000
  0.476190  0.476190  0.380952     24.000000
  0.428571  0.428571  0.428571      8.000000
  0.476190  0.428571  0.428571     24.000000
  0.476190  0.476190  0.428571     24.000000
  0.476190  0.476190  0.476190      8.000000
 
 Following cartesian coordinates:
            Coordinates               Weight
  0.000000  0.000000  0.000000      1.000000
  0.047619  0.000000  0.000000      6.000000
  0.095238  0.000000  0.000000      6.000000
  0.142857  0.000000  0.000000      6.000000
  0.190476  0.000000  0.000000      6.000000
  0.238095  0.000000  0.000000      6.000000
  0.285714  0.000000  0.000000      6.000000
  0.333333  0.000000  0.000000      6.000000
  0.380952  0.000000  0.000000      6.000000
  0.428571  0.000000  0.000000      6.000000
  0.476190  0.000000  0.000000      6.000000
  0.047619  0.047619  0.000000     12.000000
  0.095238  0.047619  0.000000     24.000000
  0.142857  0.047619  0.000000     24.000000
  0.190476  0.047619  0.000000     24.000000
  0.238095  0.047619  0.000000     24.000000
  0.285714  0.047619  0.000000     24.000000
  0.333333  0.047619  0.000000     24.000000
  0.380952  0.047619  0.000000     24.000000
  0.428571  0.047619  0.000000     24.000000
  0.476190  0.047619  0.000000     24.000000
  0.095238  0.095238  0.000000     12.000000
  0.142857  0.095238  0.000000     24.000000
  0.190476  0.095238  0.000000     24.000000
  0.238095  0.095238  0.000000     24.000000
  0.285714  0.095238  0.000000     24.000000
  0.333333  0.095238  0.000000     24.000000
  0.380952  0.095238  0.000000     24.000000
  0.428571  0.095238  0.000000     24.000000
  0.476190  0.095238  0.000000     24.000000
  0.142857  0.142857  0.000000     12.000000
  0.190476  0.142857  0.000000     24.000000
  0.238095  0.142857  0.000000     24.000000
  0.285714  0.142857  0.000000     24.000000
  0.333333  0.142857  0.000000     24.000000
  0.380952  0.142857  0.000000     24.000000
  0.428571  0.142857  0.000000     24.000000
  0.476190  0.142857  0.000000     24.000000
  0.190476  0.190476  0.000000     12.000000
  0.238095  0.190476  0.000000     24.000000
  0.285714  0.190476  0.000000     24.000000
  0.333333  0.190476  0.000000     24.000000
  0.380952  0.190476  0.000000     24.000000
  0.428571  0.190476  0.000000     24.000000
  0.476190  0.190476  0.000000     24.000000
  0.238095  0.238095  0.000000     12.000000
  0.285714  0.238095  0.000000     24.000000
  0.333333  0.238095  0.000000     24.000000
  0.380952  0.238095  0.000000     24.000000
  0.428571  0.238095  0.000000     24.000000
  0.476190  0.238095  0.000000     24.000000
  0.285714  0.285714  0.000000     12.000000
  0.333333  0.285714  0.000000     24.000000
  0.380952  0.285714  0.000000     24.000000
  0.428571  0.285714  0.000000     24.000000
  0.476190  0.285714  0.000000     24.000000
  0.333333  0.333333  0.000000     12.000000
  0.380952  0.333333  0.000000     24.000000
  0.428571  0.333333  0.000000     24.000000
  0.476190  0.333333  0.000000     24.000000
  0.380952  0.380952  0.000000     12.000000
  0.428571  0.380952  0.000000     24.000000
  0.476190  0.380952  0.000000     24.000000
  0.428571  0.428571  0.000000     12.000000
  0.476190  0.428571  0.000000     24.000000
  0.476190  0.476190  0.000000     12.000000
  0.047619  0.047619  0.047619      8.000000
  0.095238  0.047619  0.047619     24.000000
  0.142857  0.047619  0.047619     24.000000
  0.190476  0.047619  0.047619     24.000000
  0.238095  0.047619  0.047619     24.000000
  0.285714  0.047619  0.047619     24.000000
  0.333333  0.047619  0.047619     24.000000
  0.380952  0.047619  0.047619     24.000000
  0.428571  0.047619  0.047619     24.000000
  0.476190  0.047619  0.047619     24.000000
  0.095238  0.095238  0.047619     24.000000
  0.142857  0.095238  0.047619     48.000000
  0.190476  0.095238  0.047619     48.000000
  0.238095  0.095238  0.047619     48.000000
  0.285714  0.095238  0.047619     48.000000
  0.333333  0.095238  0.047619     48.000000
  0.380952  0.095238  0.047619     48.000000
  0.428571  0.095238  0.047619     48.000000
  0.476190  0.095238  0.047619     48.000000
  0.142857  0.142857  0.047619     24.000000
  0.190476  0.142857  0.047619     48.000000
  0.238095  0.142857  0.047619     48.000000
  0.285714  0.142857  0.047619     48.000000
  0.333333  0.142857  0.047619     48.000000
  0.380952  0.142857  0.047619     48.000000
  0.428571  0.142857  0.047619     48.000000
  0.476190  0.142857  0.047619     48.000000
  0.190476  0.190476  0.047619     24.000000
  0.238095  0.190476  0.047619     48.000000
  0.285714  0.190476  0.047619     48.000000
  0.333333  0.190476  0.047619     48.000000
  0.380952  0.190476  0.047619     48.000000
  0.428571  0.190476  0.047619     48.000000
  0.476190  0.190476  0.047619     48.000000
  0.238095  0.238095  0.047619     24.000000
  0.285714  0.238095  0.047619     48.000000
  0.333333  0.238095  0.047619     48.000000
  0.380952  0.238095  0.047619     48.000000
  0.428571  0.238095  0.047619     48.000000
  0.476190  0.238095  0.047619     48.000000
  0.285714  0.285714  0.047619     24.000000
  0.333333  0.285714  0.047619     48.000000
  0.380952  0.285714  0.047619     48.000000
  0.428571  0.285714  0.047619     48.000000
  0.476190  0.285714  0.047619     48.000000
  0.333333  0.333333  0.047619     24.000000
  0.380952  0.333333  0.047619     48.000000
  0.428571  0.333333  0.047619     48.000000
  0.476190  0.333333  0.047619     48.000000
  0.380952  0.380952  0.047619     24.000000
  0.428571  0.380952  0.047619     48.000000
  0.476190  0.380952  0.047619     48.000000
  0.428571  0.428571  0.047619     24.000000
  0.476190  0.428571  0.047619     48.000000
  0.476190  0.476190  0.047619     24.000000
  0.095238  0.095238  0.095238      8.000000
  0.142857  0.095238  0.095238     24.000000
  0.190476  0.095238  0.095238     24.000000
  0.238095  0.095238  0.095238     24.000000
  0.285714  0.095238  0.095238     24.000000
  0.333333  0.095238  0.095238     24.000000
  0.380952  0.095238  0.095238     24.000000
  0.428571  0.095238  0.095238     24.000000
  0.476190  0.095238  0.095238     24.000000
  0.142857  0.142857  0.095238     24.000000
  0.190476  0.142857  0.095238     48.000000
  0.238095  0.142857  0.095238     48.000000
  0.285714  0.142857  0.095238     48.000000
  0.333333  0.142857  0.095238     48.000000
  0.380952  0.142857  0.095238     48.000000
  0.428571  0.142857  0.095238     48.000000
  0.476190  0.142857  0.095238     48.000000
  0.190476  0.190476  0.095238     24.000000
  0.238095  0.190476  0.095238     48.000000
  0.285714  0.190476  0.095238     48.000000
  0.333333  0.190476  0.095238     48.000000
  0.380952  0.190476  0.095238     48.000000
  0.428571  0.190476  0.095238     48.000000
  0.476190  0.190476  0.095238     48.000000
  0.238095  0.238095  0.095238     24.000000
  0.285714  0.238095  0.095238     48.000000
  0.333333  0.238095  0.095238     48.000000
  0.380952  0.238095  0.095238     48.000000
  0.428571  0.238095  0.095238     48.000000
  0.476190  0.238095  0.095238     48.000000
  0.285714  0.285714  0.095238     24.000000
  0.333333  0.285714  0.095238     48.000000
  0.380952  0.285714  0.095238     48.000000
  0.428571  0.285714  0.095238     48.000000
  0.476190  0.285714  0.095238     48.000000
  0.333333  0.333333  0.095238     24.000000
  0.380952  0.333333  0.095238     48.000000
  0.428571  0.333333  0.095238     48.000000
  0.476190  0.333333  0.095238     48.000000
  0.380952  0.380952  0.095238     24.000000
  0.428571  0.380952  0.095238     48.000000
  0.476190  0.380952  0.095238     48.000000
  0.428571  0.428571  0.095238     24.000000
  0.476190  0.428571  0.095238     48.000000
  0.476190  0.476190  0.095238     24.000000
  0.142857  0.142857  0.142857      8.000000
  0.190476  0.142857  0.142857     24.000000
  0.238095  0.142857  0.142857     24.000000
  0.285714  0.142857  0.142857     24.000000
  0.333333  0.142857  0.142857     24.000000
  0.380952  0.142857  0.142857     24.000000
  0.428571  0.142857  0.142857     24.000000
  0.476190  0.142857  0.142857     24.000000
  0.190476  0.190476  0.142857     24.000000
  0.238095  0.190476  0.142857     48.000000
  0.285714  0.190476  0.142857     48.000000
  0.333333  0.190476  0.142857     48.000000
  0.380952  0.190476  0.142857     48.000000
  0.428571  0.190476  0.142857     48.000000
  0.476190  0.190476  0.142857     48.000000
  0.238095  0.238095  0.142857     24.000000
  0.285714  0.238095  0.142857     48.000000
  0.333333  0.238095  0.142857     48.000000
  0.380952  0.238095  0.142857     48.000000
  0.428571  0.238095  0.142857     48.000000
  0.476190  0.238095  0.142857     48.000000
  0.285714  0.285714  0.142857     24.000000
  0.333333  0.285714  0.142857     48.000000
  0.380952  0.285714  0.142857     48.000000
  0.428571  0.285714  0.142857     48.000000
  0.476190  0.285714  0.142857     48.000000
  0.333333  0.333333  0.142857     24.000000
  0.380952  0.333333  0.142857     48.000000
  0.428571  0.333333  0.142857     48.000000
  0.476190  0.333333  0.142857     48.000000
  0.380952  0.380952  0.142857     24.000000
  0.428571  0.380952  0.142857     48.000000
  0.476190  0.380952  0.142857     48.000000
  0.428571  0.428571  0.142857     24.000000
  0.476190  0.428571  0.142857     48.000000
  0.476190  0.476190  0.142857     24.000000
  0.190476  0.190476  0.190476      8.000000
  0.238095  0.190476  0.190476     24.000000
  0.285714  0.190476  0.190476     24.000000
  0.333333  0.190476  0.190476     24.000000
  0.380952  0.190476  0.190476     24.000000
  0.428571  0.190476  0.190476     24.000000
  0.476190  0.190476  0.190476     24.000000
  0.238095  0.238095  0.190476     24.000000
  0.285714  0.238095  0.190476     48.000000
  0.333333  0.238095  0.190476     48.000000
  0.380952  0.238095  0.190476     48.000000
  0.428571  0.238095  0.190476     48.000000
  0.476190  0.238095  0.190476     48.000000
  0.285714  0.285714  0.190476     24.000000
  0.333333  0.285714  0.190476     48.000000
  0.380952  0.285714  0.190476     48.000000
  0.428571  0.285714  0.190476     48.000000
  0.476190  0.285714  0.190476     48.000000
  0.333333  0.333333  0.190476     24.000000
  0.380952  0.333333  0.190476     48.000000
  0.428571  0.333333  0.190476     48.000000
  0.476190  0.333333  0.190476     48.000000
  0.380952  0.380952  0.190476     24.000000
  0.428571  0.380952  0.190476     48.000000
  0.476190  0.380952  0.190476     48.000000
  0.428571  0.428571  0.190476     24.000000
  0.476190  0.428571  0.190476     48.000000
  0.476190  0.476190  0.190476     24.000000
  0.238095  0.238095  0.238095      8.000000
  0.285714  0.238095  0.238095     24.000000
  0.333333  0.238095  0.238095     24.000000
  0.380952  0.238095  0.238095     24.000000
  0.428571  0.238095  0.238095     24.000000
  0.476190  0.238095  0.238095     24.000000
  0.285714  0.285714  0.238095     24.000000
  0.333333  0.285714  0.238095     48.000000
  0.380952  0.285714  0.238095     48.000000
  0.428571  0.285714  0.238095     48.000000
  0.476190  0.285714  0.238095     48.000000
  0.333333  0.333333  0.238095     24.000000
  0.380952  0.333333  0.238095     48.000000
  0.428571  0.333333  0.238095     48.000000
  0.476190  0.333333  0.238095     48.000000
  0.380952  0.380952  0.238095     24.000000
  0.428571  0.380952  0.238095     48.000000
  0.476190  0.380952  0.238095     48.000000
  0.428571  0.428571  0.238095     24.000000
  0.476190  0.428571  0.238095     48.000000
  0.476190  0.476190  0.238095     24.000000
  0.285714  0.285714  0.285714      8.000000
  0.333333  0.285714  0.285714     24.000000
  0.380952  0.285714  0.285714     24.000000
  0.428571  0.285714  0.285714     24.000000
  0.476190  0.285714  0.285714     24.000000
  0.333333  0.333333  0.285714     24.000000
  0.380952  0.333333  0.285714     48.000000
  0.428571  0.333333  0.285714     48.000000
  0.476190  0.333333  0.285714     48.000000
  0.380952  0.380952  0.285714     24.000000
  0.428571  0.380952  0.285714     48.000000
  0.476190  0.380952  0.285714     48.000000
  0.428571  0.428571  0.285714     24.000000
  0.476190  0.428571  0.285714     48.000000
  0.476190  0.476190  0.285714     24.000000
  0.333333  0.333333  0.333333      8.000000
  0.380952  0.333333  0.333333     24.000000
  0.428571  0.333333  0.333333     24.000000
  0.476190  0.333333  0.333333     24.000000
  0.380952  0.380952  0.333333     24.000000
  0.428571  0.380952  0.333333     48.000000
  0.476190  0.380952  0.333333     48.000000
  0.428571  0.428571  0.333333     24.000000
  0.476190  0.428571  0.333333     48.000000
  0.476190  0.476190  0.333333     24.000000
  0.380952  0.380952  0.380952      8.000000
  0.428571  0.380952  0.380952     24.000000
  0.476190  0.380952  0.380952     24.000000
  0.428571  0.428571  0.380952     24.000000
  0.476190  0.428571  0.380952     48.000000
  0.476190  0.476190  0.380952     24.000000
  0.428571  0.428571  0.428571      8.000000
  0.476190  0.428571  0.428571     24.000000
  0.476190  0.476190  0.428571     24.000000
  0.476190  0.476190  0.476190      8.000000
 
 TETIRR: Found   4601 inequivalent tetrahedra from    55566


--------------------------------------------------------------------------------------------------------




 Dimension of arrays:
   k-points           NKPTS =    286   k-points in BZ     NKDIM =    286   number of bands    NBANDS=     24
   number of dos      NEDOS =    301   number of ions     NIONS =      2
   non local maximal  LDIM  =      6   non local SUM 2l+1 LMDIM =     18
   total plane-waves  NPLWV =   4096
   max r-space proj   IRMAX =      1   max aug-charges    IRDMAX=  41248
   dimension x,y,z NGX =    16 NGY =   16 NGZ =   16
   dimension x,y,z NGXF=    32 NGYF=   32 NGZF=   32
   support grid    NGXF=    64 NGYF=   64 NGZF=   64
   ions per type =               2
   NGX,Y,Z   is equivalent  to a cutoff of   9.27,  9.27,  9.27 a.u.
   NGXF,Y,Z  is equivalent  to a cutoff of  18.54, 18.54, 18.54 a.u.

 SYSTEM =  OPT                                     
 POSCAR =  Fe                                      

 Startparameter for this run:
   NWRITE =      2    write-flag & timer
   PREC   = normal    normal or accurate (medium, high low for compatibility)
   ISTART =      0    job   : 0-new  1-cont  2-samecut
   ICHARG =      2    charge: 1-file 2-atom 10-const
   ISPIN  =      2    spin polarized calculation?
   LNONCOLLINEAR =      F non collinear calculations
   LSORBIT =      F    spin-orbit coupling
   INIWAV =      1    electr: 0-lowe 1-rand  2-diag
   LASPH  =      F    aspherical Exc in radial PAW
   METAGGA=      F    non-selfconsistent MetaGGA calc.

 Electronic Relaxation 1
   ENCUT  =  550.0 eV  40.42 Ry    6.36 a.u.   5.49  5.49  5.49*2*pi/ulx,y,z
   ENINI  =  550.0     initial cutoff
   ENAUG  =  578.3 eV  augmentation charge cutoff
   NELM   =    300;   NELMIN=  2; NELMDL=  6     # of ELM steps 
   EDIFF  = 0.1E-06   stopping-criterion for ELM
   LREAL  =      F    real-space projection
   NLSPLINE    = F    spline interpolate recip. space projectors
   LCOMPAT=      F    compatible to vasp.4.4
   GGA_COMPAT  = T    GGA compatible to vasp.4.4-vasp.4.6
   LMAXPAW     = -100 max onsite density
   LMAXMIX     =    2 max onsite mixed and CHGCAR
   VOSKOWN=      0    Vosko Wilk Nusair interpolation
   ROPT   =    0.00000
 Ionic relaxation
   EDIFFG = -.1E-03   stopping-criterion for IOM
   NSW    =      0    number of steps for IOM
   NBLOCK =      1;   KBLOCK =      1    inner block; outer block 
   IBRION =     -1    ionic relax: 0-MD 1-quasi-New 2-CG
   NFREE  =      0    steps in history (QN), initial steepest desc. (CG)
   ISIF   =      3    stress and relaxation
   IWAVPR =     10    prediction:  0-non 1-charg 2-wave 3-comb
   ISYM   =      2    0-nonsym 1-usesym 2-fastsym
   LCORR  =      T    Harris-Foulkes like correction to forces

   POTIM  = 0.4000    time-step for ionic-motion
   TEIN   =    0.0    initial temperature
   TEBEG  =    0.0;   TEEND  =   0.0 temperature during run
   SMASS  =  -3.00    Nose mass-parameter (am)
   estimated Nose-frequenzy (Omega)   =  0.10E-29 period in steps =****** mass=  -0.188E-27a.u.
   SCALEE = 1.0000    scale energy and forces
   NPACO  =    256;   APACO  = 16.0  distance and # of slots for P.C.
   PSTRESS=    0.0 pullay stress

  Mass of Ions in am
   POMASS =  55.85
  Ionic Valenz
   ZVAL   =  14.00
  Atomic Wigner-Seitz radii
   RWIGS  =  -1.00
  virtual crystal weights 
   VCA    =   1.00
   NELECT =      28.0000    total number of electrons
   NUPDOWN=      -1.0000    fix difference up-down

 DOS related values:
   EMIN   =  10.00;   EMAX   =-10.00  energy-range for DOS
   EFERMI =   0.00
   ISMEAR =    -5;   SIGMA  =   0.10  broadening in eV -4-tet -1-fermi 0-gaus

 Electronic relaxation 2 (details)
   IALGO  =     68    algorithm
   LDIAG  =      T    sub-space diagonalisation (order eigenvalues)
   LSUBROT=      F    optimize rotation matrix (better conditioning)
   TURBO    =      0    0=normal 1=particle mesh
   IRESTART =      0    0=no restart 2=restart with 2 vectors
   NREBOOT  =      0    no. of reboots
   NMIN     =      0    reboot dimension
   EREF     =   0.00    reference energy to select bands
   IMIX   =      4    mixing-type and parameters
     AMIX     =   0.40;   BMIX     =  1.00
     AMIX_MAG =   1.60;   BMIX_MAG =  1.00
     AMIN     =   0.10
     WC   =   100.;   INIMIX=   1;  MIXPRE=   1;  MAXMIX= -45

 Intra band minimization:
   WEIMIN = 0.0000     energy-eigenvalue tresh-hold
   EBREAK =  0.10E-08  absolut break condition
   DEPER  =   0.30     relativ break condition  

   TIME   =   0.40     timestep for ELM

  volume/ion in A,a.u.               =      11.82        79.76
  Fermi-wavevector in a.u.,A,eV,Ry     =   1.732124  3.273239 40.820921  3.000253
  Thomas-Fermi vector in A             =   2.806360
 
 Write flags
   LWAVE        =      F    write WAVECAR
   LDOWNSAMPLE  =      F    k-point downsampling of WAVECAR
   LCHARG       =      T    write CHGCAR
   LVTOT        =      F    write LOCPOT, total local potential
   LVHAR        =      F    write LOCPOT, Hartree potential only
   LELF         =      F    write electronic localiz. function (ELF)
   LORBIT       =     11    0 simple, 1 ext, 2 COOP (PROOUT), +10 PAW based schemes


 Dipole corrections
   LMONO  =      F    monopole corrections only (constant potential shift)
   LDIPOL =      F    correct potential (dipole corrections)
   IDIPOL =      0    1-x, 2-y, 3-z, 4-all directions 
   EPSILON=  1.0000000 bulk dielectric constant

 Exchange correlation treatment:
   GGA     =    --    GGA type
   LEXCH   =     8    internal setting for exchange type
   VOSKOWN=      0    Vosko Wilk Nusair interpolation
   LHFCALC =     F    Hartree Fock is set to
   LHFONE  =     F    Hartree Fock one center treatment
   AEXX    =    0.0000 exact exchange contribution

 Linear response parameters
   LEPSILON=     F    determine dielectric tensor
   LRPA    =     F    only Hartree local field effects (RPA)
   LNABLA  =     F    use nabla operator in PAW spheres
   LVEL    =     F    velocity operator in full k-point grid
   LINTERFAST=   F  fast interpolation
   KINTER  =     0    interpolate to denser k-point grid
   CSHIFT  =0.1000    complex shift for real part using Kramers Kronig
   OMEGAMAX=  -1.0    maximum frequency
   DEG_THRESHOLD= 0.2000000E-02 threshold for treating states as degnerate
   RTIME   =   -0.100 relaxation time in fs
  (WPLASMAI=    0.000 imaginary part of plasma frequency in eV, 0.658/RTIME)
   DFIELD  = 0.0000000 0.0000000 0.0000000 field for delta impulse in time
 
 Orbital magnetization related:
   ORBITALMAG=     F  switch on orbital magnetization
   LCHIMAG   =     F  perturbation theory with respect to B field
   DQ        =  0.001000  dq finite difference perturbation B field
   LLRAUG    =     F  two centre corrections for induced B field



--------------------------------------------------------------------------------------------------------


 Static calculation
 charge density and potential will be updated during run
 spin polarized calculation
 RMM-DIIS sequential band-by-band and
  variant of blocked Davidson during initial phase
 perform sub-space diagonalisation
    before iterative eigenvector-optimisation
 modified Broyden-mixing scheme, WC =      100.0
 initial mixing is a Kerker type mixing with AMIX =  0.4000 and BMIX =      1.0000
 Hartree-type preconditioning will be used
 using additional bands           10
 reciprocal scheme for non local part
 use partial core corrections
 calculate Harris-corrections to forces 
   (improved forces if not selfconsistent)
 use gradient corrections 
 use of overlap-Matrix (Vanderbilt PP)
 Fermi weights with tetrahedron method with Bloechl corrections


--------------------------------------------------------------------------------------------------------


  energy-cutoff  :      550.00
  volume of cell :       23.64
      direct lattice vectors                 reciprocal lattice vectors
     2.870000000  0.000000000  0.000000000     0.348432056  0.000000000  0.000000000
     0.000000000  2.870000000  0.000000000     0.000000000  0.348432056  0.000000000
     0.000000000  0.000000000  2.870000000     0.000000000  0.000000000  0.348432056

  length of vectors
     2.870000000  2.870000000  2.870000000     0.348432056  0.348432056  0.348432056


 
 k-points in units of 2pi/SCALE and weight: Automatic Mesh # Generates Automatically
   0.00000000  0.00000000  0.00000000       0.000
   0.04761905  0.00000000  0.00000000       0.001
   0.09523810  0.00000000  0.00000000       0.001
   0.14285714  0.00000000  0.00000000       0.001
   0.19047619  0.00000000  0.00000000       0.001
   0.23809524  0.00000000  0.00000000       0.001
   0.28571429  0.00000000  0.00000000       0.001
   0.33333333  0.00000000  0.00000000       0.001
   0.38095238  0.00000000  0.00000000       0.001
   0.42857143  0.00000000  0.00000000       0.001
   0.47619048  0.00000000  0.00000000       0.001
   0.04761905  0.04761905  0.00000000       0.001
   0.09523810  0.04761905  0.00000000       0.003
   0.14285714  0.04761905  0.00000000       0.003
   0.19047619  0.04761905  0.00000000       0.003
   0.23809524  0.04761905  0.00000000       0.003
   0.28571429  0.04761905  0.00000000       0.003
   0.33333333  0.04761905  0.00000000       0.003
   0.38095238  0.04761905  0.00000000       0.003
   0.42857143  0.04761905  0.00000000       0.003
   0.47619048  0.04761905  0.00000000       0.003
   0.09523810  0.09523810  0.00000000       0.001
   0.14285714  0.09523810  0.00000000       0.003
   0.19047619  0.09523810  0.00000000       0.003
   0.23809524  0.09523810  0.00000000       0.003
   0.28571429  0.09523810  0.00000000       0.003
   0.33333333  0.09523810  0.00000000       0.003
   0.38095238  0.09523810  0.00000000       0.003
   0.42857143  0.09523810  0.00000000       0.003
   0.47619048  0.09523810  0.00000000       0.003
   0.14285714  0.14285714  0.00000000       0.001
   0.19047619  0.14285714  0.00000000       0.003
   0.23809524  0.14285714  0.00000000       0.003
   0.28571429  0.14285714  0.00000000       0.003
   0.33333333  0.14285714  0.00000000       0.003
   0.38095238  0.14285714  0.00000000       0.003
   0.42857143  0.14285714  0.00000000       0.003
   0.47619048  0.14285714  0.00000000       0.003
   0.19047619  0.19047619  0.00000000       0.001
   0.23809524  0.19047619  0.00000000       0.003
   0.28571429  0.19047619  0.00000000       0.003
   0.33333333  0.19047619  0.00000000       0.003
   0.38095238  0.19047619  0.00000000       0.003
   0.42857143  0.19047619  0.00000000       0.003
   0.47619048  0.19047619  0.00000000       0.003
   0.23809524  0.23809524  0.00000000       0.001
   0.28571429  0.23809524  0.00000000       0.003
   0.33333333  0.23809524  0.00000000       0.003
   0.38095238  0.23809524  0.00000000       0.003
   0.42857143  0.23809524  0.00000000       0.003
   0.47619048  0.23809524  0.00000000       0.003
   0.28571429  0.28571429  0.00000000       0.001
   0.33333333  0.28571429  0.00000000       0.003
   0.38095238  0.28571429  0.00000000       0.003
   0.42857143  0.28571429  0.00000000       0.003
   0.47619048  0.28571429  0.00000000       0.003
   0.33333333  0.33333333  0.00000000       0.001
   0.38095238  0.33333333  0.00000000       0.003
   0.42857143  0.33333333  0.00000000       0.003
   0.47619048  0.33333333  0.00000000       0.003
   0.38095238  0.38095238  0.00000000       0.001
   0.42857143  0.38095238  0.00000000       0.003
   0.47619048  0.38095238  0.00000000       0.003
   0.42857143  0.42857143  0.00000000       0.001
   0.47619048  0.42857143  0.00000000       0.003
   0.47619048  0.47619048  0.00000000       0.001
   0.04761905  0.04761905  0.04761905       0.001
   0.09523810  0.04761905  0.04761905       0.003
   0.14285714  0.04761905  0.04761905       0.003
   0.19047619  0.04761905  0.04761905       0.003
   0.23809524  0.04761905  0.04761905       0.003
   0.28571429  0.04761905  0.04761905       0.003
   0.33333333  0.04761905  0.04761905       0.003
   0.38095238  0.04761905  0.04761905       0.003
   0.42857143  0.04761905  0.04761905       0.003
   0.47619048  0.04761905  0.04761905       0.003
   0.09523810  0.09523810  0.04761905       0.003
   0.14285714  0.09523810  0.04761905       0.005
   0.19047619  0.09523810  0.04761905       0.005
   0.23809524  0.09523810  0.04761905       0.005
   0.28571429  0.09523810  0.04761905       0.005
   0.33333333  0.09523810  0.04761905       0.005
   0.38095238  0.09523810  0.04761905       0.005
   0.42857143  0.09523810  0.04761905       0.005
   0.47619048  0.09523810  0.04761905       0.005
   0.14285714  0.14285714  0.04761905       0.003
   0.19047619  0.14285714  0.04761905       0.005
   0.23809524  0.14285714  0.04761905       0.005
   0.28571429  0.14285714  0.04761905       0.005
   0.33333333  0.14285714  0.04761905       0.005
   0.38095238  0.14285714  0.04761905       0.005
   0.42857143  0.14285714  0.04761905       0.005
   0.47619048  0.14285714  0.04761905       0.005
   0.19047619  0.19047619  0.04761905       0.003
   0.23809524  0.19047619  0.04761905       0.005
   0.28571429  0.19047619  0.04761905       0.005
   0.33333333  0.19047619  0.04761905       0.005
   0.38095238  0.19047619  0.04761905       0.005
   0.42857143  0.19047619  0.04761905       0.005
   0.47619048  0.19047619  0.04761905       0.005
   0.23809524  0.23809524  0.04761905       0.003
   0.28571429  0.23809524  0.04761905       0.005
   0.33333333  0.23809524  0.04761905       0.005
   0.38095238  0.23809524  0.04761905       0.005
   0.42857143  0.23809524  0.04761905       0.005
   0.47619048  0.23809524  0.04761905       0.005
   0.28571429  0.28571429  0.04761905       0.003
   0.33333333  0.28571429  0.04761905       0.005
   0.38095238  0.28571429  0.04761905       0.005
   0.42857143  0.28571429  0.04761905       0.005
   0.47619048  0.28571429  0.04761905       0.005
   0.33333333  0.33333333  0.04761905       0.003
   0.38095238  0.33333333  0.04761905       0.005
   0.42857143  0.33333333  0.04761905       0.005
   0.47619048  0.33333333  0.04761905       0.005
   0.38095238  0.38095238  0.04761905       0.003
   0.42857143  0.38095238  0.04761905       0.005
   0.47619048  0.38095238  0.04761905       0.005
   0.42857143  0.42857143  0.04761905       0.003
   0.47619048  0.42857143  0.04761905       0.005
   0.47619048  0.47619048  0.04761905       0.003
   0.09523810  0.09523810  0.09523810       0.001
   0.14285714  0.09523810  0.09523810       0.003
   0.19047619  0.09523810  0.09523810       0.003
   0.23809524  0.09523810  0.09523810       0.003
   0.28571429  0.09523810  0.09523810       0.003
   0.33333333  0.09523810  0.09523810       0.003
   0.38095238  0.09523810  0.09523810       0.003
   0.42857143  0.09523810  0.09523810       0.003
   0.47619048  0.09523810  0.09523810       0.003
   0.14285714  0.14285714  0.09523810       0.003
   0.19047619  0.14285714  0.09523810       0.005
   0.23809524  0.14285714  0.09523810       0.005
   0.28571429  0.14285714  0.09523810       0.005
   0.33333333  0.14285714  0.09523810       0.005
   0.38095238  0.14285714  0.09523810       0.005
   0.42857143  0.14285714  0.09523810       0.005
   0.47619048  0.14285714  0.09523810       0.005
   0.19047619  0.19047619  0.09523810       0.003
   0.23809524  0.19047619  0.09523810       0.005
   0.28571429  0.19047619  0.09523810       0.005
   0.33333333  0.19047619  0.09523810       0.005
   0.38095238  0.19047619  0.09523810       0.005
   0.42857143  0.19047619  0.09523810       0.005
   0.47619048  0.19047619  0.09523810       0.005
   0.23809524  0.23809524  0.09523810       0.003
   0.28571429  0.23809524  0.09523810       0.005
   0.33333333  0.23809524  0.09523810       0.005
   0.38095238  0.23809524  0.09523810       0.005
   0.42857143  0.23809524  0.09523810       0.005
   0.47619048  0.23809524  0.09523810       0.005
   0.28571429  0.28571429  0.09523810       0.003
   0.33333333  0.28571429  0.09523810       0.005
   0.38095238  0.28571429  0.09523810       0.005
   0.42857143  0.28571429  0.09523810       0.005
   0.47619048  0.28571429  0.09523810       0.005
   0.33333333  0.33333333  0.09523810       0.003
   0.38095238  0.33333333  0.09523810       0.005
   0.42857143  0.33333333  0.09523810       0.005
   0.47619048  0.33333333  0.09523810       0.005
   0.38095238  0.38095238  0.09523810       0.003
   0.42857143  0.38095238  0.09523810       0.005
   0.47619048  0.38095238  0.09523810       0.005
   0.42857143  0.42857143  0.09523810       0.003
   0.47619048  0.42857143  0.09523810       0.005
   0.47619048  0.47619048  0.09523810       0.003
   0.14285714  0.14285714  0.14285714       0.001
   0.19047619  0.14285714  0.14285714       0.003
   0.23809524  0.14285714  0.14285714       0.003
   0.28571429  0.14285714  0.14285714       0.003
   0.33333333  0.14285714  0.14285714       0.003
   0.38095238  0.14285714  0.14285714       0.003
   0.42857143  0.14285714  0.14285714       0.003
   0.47619048  0.14285714  0.14285714       0.003
   0.19047619  0.19047619  0.14285714       0.003
   0.23809524  0.19047619  0.14285714       0.005
   0.28571429  0.19047619  0.14285714       0.005
   0.33333333  0.19047619  0.14285714       0.005
   0.38095238  0.19047619  0.14285714       0.005
   0.42857143  0.19047619  0.14285714       0.005
   0.47619048  0.19047619  0.14285714       0.005
   0.23809524  0.23809524  0.14285714       0.003
   0.28571429  0.23809524  0.14285714       0.005
   0.33333333  0.23809524  0.14285714       0.005
   0.38095238  0.23809524  0.14285714       0.005
   0.42857143  0.23809524  0.14285714       0.005
   0.47619048  0.23809524  0.14285714       0.005
   0.28571429  0.28571429  0.14285714       0.003
   0.33333333  0.28571429  0.14285714       0.005
   0.38095238  0.28571429  0.14285714       0.005
   0.42857143  0.28571429  0.14285714       0.005
   0.47619048  0.28571429  0.14285714       0.005
   0.33333333  0.33333333  0.14285714       0.003
   0.38095238  0.33333333  0.14285714       0.005
   0.42857143  0.33333333  0.14285714       0.005
   0.47619048  0.33333333  0.14285714       0.005
   0.38095238  0.38095238  0.14285714       0.003
   0.42857143  0.38095238  0.14285714       0.005
   0.47619048  0.38095238  0.14285714       0.005
   0.42857143  0.42857143  0.14285714       0.003
   0.47619048  0.42857143  0.14285714       0.005
   0.47619048  0.47619048  0.14285714       0.003
   0.19047619  0.19047619  0.19047619       0.001
   0.23809524  0.19047619  0.19047619       0.003
   0.28571429  0.19047619  0.19047619       0.003
   0.33333333  0.19047619  0.19047619       0.003
   0.38095238  0.19047619  0.19047619       0.003
   0.42857143  0.19047619  0.19047619       0.003
   0.47619048  0.19047619  0.19047619       0.003
   0.23809524  0.23809524  0.19047619       0.003
   0.28571429  0.23809524  0.19047619       0.005
   0.33333333  0.23809524  0.19047619       0.005
   0.38095238  0.23809524  0.19047619       0.005
   0.42857143  0.23809524  0.19047619       0.005
   0.47619048  0.23809524  0.19047619       0.005
   0.28571429  0.28571429  0.19047619       0.003
   0.33333333  0.28571429  0.19047619       0.005
   0.38095238  0.28571429  0.19047619       0.005
   0.42857143  0.28571429  0.19047619       0.005
   0.47619048  0.28571429  0.19047619       0.005
   0.33333333  0.33333333  0.19047619       0.003
   0.38095238  0.33333333  0.19047619       0.005
   0.42857143  0.33333333  0.19047619       0.005
   0.47619048  0.33333333  0.19047619       0.005
   0.38095238  0.38095238  0.19047619       0.003
   0.42857143  0.38095238  0.19047619       0.005
   0.47619048  0.38095238  0.19047619       0.005
   0.42857143  0.42857143  0.19047619       0.003
   0.47619048  0.42857143  0.19047619       0.005
   0.47619048  0.47619048  0.19047619       0.003
   0.23809524  0.23809524  0.23809524       0.001
   0.28571429  0.23809524  0.23809524       0.003
   0.33333333  0.23809524  0.23809524       0.003
   0.38095238  0.23809524  0.23809524       0.003
   0.42857143  0.23809524  0.23809524       0.003
   0.47619048  0.23809524  0.23809524       0.003
   0.28571429  0.28571429  0.23809524       0.003
   0.33333333  0.28571429  0.23809524       0.005
   0.38095238  0.28571429  0.23809524       0.005
   0.42857143  0.28571429  0.23809524       0.005
   0.47619048  0.28571429  0.23809524       0.005
   0.33333333  0.33333333  0.23809524       0.003
   0.38095238  0.33333333  0.23809524       0.005
   0.42857143  0.33333333  0.23809524       0.005
   0.47619048  0.33333333  0.23809524       0.005
   0.38095238  0.38095238  0.23809524       0.003
   0.42857143  0.38095238  0.23809524       0.005
   0.47619048  0.38095238  0.23809524       0.005
   0.42857143  0.42857143  0.23809524       0.003
   0.47619048  0.42857143  0.23809524       0.005
   0.47619048  0.47619048  0.23809524       0.003
   0.28571429  0.28571429  0.28571429       0.001
   0.33333333  0.28571429  0.28571429       0.003
   0.38095238  0.28571429  0.28571429       0.003
   0.42857143  0.28571429  0.28571429       0.003
   0.47619048  0.28571429  0.28571429       0.003
   0.33333333  0.33333333  0.28571429       0.003
   0.38095238  0.33333333  0.28571429       0.005
   0.42857143  0.33333333  0.28571429       0.005
   0.47619048  0.33333333  0.28571429       0.005
   0.38095238  0.38095238  0.28571429       0.003
   0.42857143  0.38095238  0.28571429       0.005
   0.47619048  0.38095238  0.28571429       0.005
   0.42857143  0.42857143  0.28571429       0.003
   0.47619048  0.42857143  0.28571429       0.005
   0.47619048  0.47619048  0.28571429       0.003
   0.33333333  0.33333333  0.33333333       0.001
   0.38095238  0.33333333  0.33333333       0.003
   0.42857143  0.33333333  0.33333333       0.003
   0.47619048  0.33333333  0.33333333       0.003
   0.38095238  0.38095238  0.33333333       0.003
   0.42857143  0.38095238  0.33333333       0.005
   0.47619048  0.38095238  0.33333333       0.005
   0.42857143  0.42857143  0.33333333       0.003
   0.47619048  0.42857143  0.33333333       0.005
   0.47619048  0.47619048  0.33333333       0.003
   0.38095238  0.38095238  0.38095238       0.001
   0.42857143  0.38095238  0.38095238       0.003
   0.47619048  0.38095238  0.38095238       0.003
   0.42857143  0.42857143  0.38095238       0.003
   0.47619048  0.42857143  0.38095238       0.005
   0.47619048  0.47619048  0.38095238       0.003
   0.42857143  0.42857143  0.42857143       0.001
   0.47619048  0.42857143  0.42857143       0.003
   0.47619048  0.47619048  0.42857143       0.003
   0.47619048  0.47619048  0.47619048       0.001
 
 k-points in reciprocal lattice and weights: Automatic Mesh # Generates Automatically
   0.00000000  0.00000000  0.00000000       0.000
   0.04761905  0.00000000  0.00000000       0.001
   0.09523810  0.00000000  0.00000000       0.001
   0.14285714  0.00000000  0.00000000       0.001
   0.19047619  0.00000000  0.00000000       0.001
   0.23809524  0.00000000  0.00000000       0.001
   0.28571429  0.00000000  0.00000000       0.001
   0.33333333  0.00000000  0.00000000       0.001
   0.38095238  0.00000000  0.00000000       0.001
   0.42857143  0.00000000  0.00000000       0.001
   0.47619048  0.00000000  0.00000000       0.001
   0.04761905  0.04761905  0.00000000       0.001
   0.09523810  0.04761905  0.00000000       0.003
   0.14285714  0.04761905  0.00000000       0.003
   0.19047619  0.04761905  0.00000000       0.003
   0.23809524  0.04761905  0.00000000       0.003
   0.28571429  0.04761905  0.00000000       0.003
   0.33333333  0.04761905  0.00000000       0.003
   0.38095238  0.04761905  0.00000000       0.003
   0.42857143  0.04761905  0.00000000       0.003
   0.47619048  0.04761905  0.00000000       0.003
   0.09523810  0.09523810  0.00000000       0.001
   0.14285714  0.09523810  0.00000000       0.003
   0.19047619  0.09523810  0.00000000       0.003
   0.23809524  0.09523810  0.00000000       0.003
   0.28571429  0.09523810  0.00000000       0.003
   0.33333333  0.09523810  0.00000000       0.003
   0.38095238  0.09523810  0.00000000       0.003
   0.42857143  0.09523810  0.00000000       0.003
   0.47619048  0.09523810  0.00000000       0.003
   0.14285714  0.14285714  0.00000000       0.001
   0.19047619  0.14285714  0.00000000       0.003
   0.23809524  0.14285714  0.00000000       0.003
   0.28571429  0.14285714  0.00000000       0.003
   0.33333333  0.14285714  0.00000000       0.003
   0.38095238  0.14285714  0.00000000       0.003
   0.42857143  0.14285714  0.00000000       0.003
   0.47619048  0.14285714  0.00000000       0.003
   0.19047619  0.19047619  0.00000000       0.001
   0.23809524  0.19047619  0.00000000       0.003
   0.28571429  0.19047619  0.00000000       0.003
   0.33333333  0.19047619  0.00000000       0.003
   0.38095238  0.19047619  0.00000000       0.003
   0.42857143  0.19047619  0.00000000       0.003
   0.47619048  0.19047619  0.00000000       0.003
   0.23809524  0.23809524  0.00000000       0.001
   0.28571429  0.23809524  0.00000000       0.003
   0.33333333  0.23809524  0.00000000       0.003
   0.38095238  0.23809524  0.00000000       0.003
   0.42857143  0.23809524  0.00000000       0.003
   0.47619048  0.23809524  0.00000000       0.003
   0.28571429  0.28571429  0.00000000       0.001
   0.33333333  0.28571429  0.00000000       0.003
   0.38095238  0.28571429  0.00000000       0.003
   0.42857143  0.28571429  0.00000000       0.003
   0.47619048  0.28571429  0.00000000       0.003
   0.33333333  0.33333333  0.00000000       0.001
   0.38095238  0.33333333  0.00000000       0.003
   0.42857143  0.33333333  0.00000000       0.003
   0.47619048  0.33333333  0.00000000       0.003
   0.38095238  0.38095238  0.00000000       0.001
   0.42857143  0.38095238  0.00000000       0.003
   0.47619048  0.38095238  0.00000000       0.003
   0.42857143  0.42857143  0.00000000       0.001
   0.47619048  0.42857143  0.00000000       0.003
   0.47619048  0.47619048  0.00000000       0.001
   0.04761905  0.04761905  0.04761905       0.001
   0.09523810  0.04761905  0.04761905       0.003
   0.14285714  0.04761905  0.04761905       0.003
   0.19047619  0.04761905  0.04761905       0.003
   0.23809524  0.04761905  0.04761905       0.003
   0.28571429  0.04761905  0.04761905       0.003
   0.33333333  0.04761905  0.04761905       0.003
   0.38095238  0.04761905  0.04761905       0.003
   0.42857143  0.04761905  0.04761905       0.003
   0.47619048  0.04761905  0.04761905       0.003
   0.09523810  0.09523810  0.04761905       0.003
   0.14285714  0.09523810  0.04761905       0.005
   0.19047619  0.09523810  0.04761905       0.005
   0.23809524  0.09523810  0.04761905       0.005
   0.28571429  0.09523810  0.04761905       0.005
   0.33333333  0.09523810  0.04761905       0.005
   0.38095238  0.09523810  0.04761905       0.005
   0.42857143  0.09523810  0.04761905       0.005
   0.47619048  0.09523810  0.04761905       0.005
   0.14285714  0.14285714  0.04761905       0.003
   0.19047619  0.14285714  0.04761905       0.005
   0.23809524  0.14285714  0.04761905       0.005
   0.28571429  0.14285714  0.04761905       0.005
   0.33333333  0.14285714  0.04761905       0.005
   0.38095238  0.14285714  0.04761905       0.005
   0.42857143  0.14285714  0.04761905       0.005
   0.47619048  0.14285714  0.04761905       0.005
   0.19047619  0.19047619  0.04761905       0.003
   0.23809524  0.19047619  0.04761905       0.005
   0.28571429  0.19047619  0.04761905       0.005
   0.33333333  0.19047619  0.04761905       0.005
   0.38095238  0.19047619  0.04761905       0.005
   0.42857143  0.19047619  0.04761905       0.005
   0.47619048  0.19047619  0.04761905       0.005
   0.23809524  0.23809524  0.04761905       0.003
   0.28571429  0.23809524  0.04761905       0.005
   0.33333333  0.23809524  0.04761905       0.005
   0.38095238  0.23809524  0.04761905       0.005
   0.42857143  0.23809524  0.04761905       0.005
   0.47619048  0.23809524  0.04761905       0.005
   0.28571429  0.28571429  0.04761905       0.003
   0.33333333  0.28571429  0.04761905       0.005
   0.38095238  0.28571429  0.04761905       0.005
   0.42857143  0.28571429  0.04761905       0.005
   0.47619048  0.28571429  0.04761905       0.005
   0.33333333  0.33333333  0.04761905       0.003
   0.38095238  0.33333333  0.04761905       0.005
   0.42857143  0.33333333  0.04761905       0.005
   0.47619048  0.33333333  0.04761905       0.005
   0.38095238  0.38095238  0.04761905       0.003
   0.42857143  0.38095238  0.04761905       0.005
   0.47619048  0.38095238  0.04761905       0.005
   0.42857143  0.42857143  0.04761905       0.003
   0.47619048  0.42857143  0.04761905       0.005
   0.47619048  0.47619048  0.04761905       0.003
   0.09523810  0.09523810  0.09523810       0.001
   0.14285714  0.09523810  0.09523810       0.003
   0.19047619  0.09523810  0.09523810       0.003
   0.23809524  0.09523810  0.09523810       0.003
   0.28571429  0.09523810  0.09523810       0.003
   0.33333333  0.09523810  0.09523810       0.003
   0.38095238  0.09523810  0.09523810       0.003
   0.42857143  0.09523810  0.09523810       0.003
   0.47619048  0.09523810  0.09523810       0.003
   0.14285714  0.14285714  0.09523810       0.003
   0.19047619  0.14285714  0.09523810       0.005
   0.23809524  0.14285714  0.09523810       0.005
   0.28571429  0.14285714  0.09523810       0.005
   0.33333333  0.14285714  0.09523810       0.005
   0.38095238  0.14285714  0.09523810       0.005
   0.42857143  0.14285714  0.09523810       0.005
   0.47619048  0.14285714  0.09523810       0.005
   0.19047619  0.19047619  0.09523810       0.003
   0.23809524  0.19047619  0.09523810       0.005
   0.28571429  0.19047619  0.09523810       0.005
   0.33333333  0.19047619  0.09523810       0.005
   0.38095238  0.19047619  0.09523810       0.005
   0.42857143  0.19047619  0.09523810       0.005
   0.47619048  0.19047619  0.09523810       0.005
   0.23809524  0.23809524  0.09523810       0.003
   0.28571429  0.23809524  0.09523810       0.005
   0.33333333  0.23809524  0.09523810       0.005
   0.38095238  0.23809524  0.09523810       0.005
   0.42857143  0.23809524  0.09523810       0.005
   0.47619048  0.23809524  0.09523810       0.005
   0.28571429  0.28571429  0.09523810       0.003
   0.33333333  0.28571429  0.09523810       0.005
   0.38095238  0.28571429  0.09523810       0.005
   0.42857143  0.28571429  0.09523810       0.005
   0.47619048  0.28571429  0.09523810       0.005
   0.33333333  0.33333333  0.09523810       0.003
   0.38095238  0.33333333  0.09523810       0.005
   0.42857143  0.33333333  0.09523810       0.005
   0.47619048  0.33333333  0.09523810       0.005
   0.38095238  0.38095238  0.09523810       0.003
   0.42857143  0.38095238  0.09523810       0.005
   0.47619048  0.38095238  0.09523810       0.005
   0.42857143  0.42857143  0.09523810       0.003
   0.47619048  0.42857143  0.09523810       0.005
   0.47619048  0.47619048  0.09523810       0.003
   0.14285714  0.14285714  0.14285714       0.001
   0.19047619  0.14285714  0.14285714       0.003
   0.23809524  0.14285714  0.14285714       0.003
   0.28571429  0.14285714  0.14285714       0.003
   0.33333333  0.14285714  0.14285714       0.003
   0.38095238  0.14285714  0.14285714       0.003
   0.42857143  0.14285714  0.14285714       0.003
   0.47619048  0.14285714  0.14285714       0.003
   0.19047619  0.19047619  0.14285714       0.003
   0.23809524  0.19047619  0.14285714       0.005
   0.28571429  0.19047619  0.14285714       0.005
   0.33333333  0.19047619  0.14285714       0.005
   0.38095238  0.19047619  0.14285714       0.005
   0.42857143  0.19047619  0.14285714       0.005
   0.47619048  0.19047619  0.14285714       0.005
   0.23809524  0.23809524  0.14285714       0.003
   0.28571429  0.23809524  0.14285714       0.005
   0.33333333  0.23809524  0.14285714       0.005
   0.38095238  0.23809524  0.14285714       0.005
   0.42857143  0.23809524  0.14285714       0.005
   0.47619048  0.23809524  0.14285714       0.005
   0.28571429  0.28571429  0.14285714       0.003
   0.33333333  0.28571429  0.14285714       0.005
   0.38095238  0.28571429  0.14285714       0.005
   0.42857143  0.28571429  0.14285714       0.005
   0.47619048  0.28571429  0.14285714       0.005
   0.33333333  0.33333333  0.14285714       0.003
   0.38095238  0.33333333  0.14285714       0.005
   0.42857143  0.33333333  0.14285714       0.005
   0.47619048  0.33333333  0.14285714       0.005
   0.38095238  0.38095238  0.14285714       0.003
   0.42857143  0.38095238  0.14285714       0.005
   0.47619048  0.38095238  0.14285714       0.005
   0.42857143  0.42857143  0.14285714       0.003
   0.47619048  0.42857143  0.14285714       0.005
   0.47619048  0.47619048  0.14285714       0.003
   0.19047619  0.19047619  0.19047619       0.001
   0.23809524  0.19047619  0.19047619       0.003
   0.28571429  0.19047619  0.19047619       0.003
   0.33333333  0.19047619  0.19047619       0.003
   0.38095238  0.19047619  0.19047619       0.003
   0.42857143  0.19047619  0.19047619       0.003
   0.47619048  0.19047619  0.19047619       0.003
   0.23809524  0.23809524  0.19047619       0.003
   0.28571429  0.23809524  0.19047619       0.005
   0.33333333  0.23809524  0.19047619       0.005
   0.38095238  0.23809524  0.19047619       0.005
   0.42857143  0.23809524  0.19047619       0.005
   0.47619048  0.23809524  0.19047619       0.005
   0.28571429  0.28571429  0.19047619       0.003
   0.33333333  0.28571429  0.19047619       0.005
   0.38095238  0.28571429  0.19047619       0.005
   0.42857143  0.28571429  0.19047619       0.005
   0.47619048  0.28571429  0.19047619       0.005
   0.33333333  0.33333333  0.19047619       0.003
   0.38095238  0.33333333  0.19047619       0.005
   0.42857143  0.33333333  0.19047619       0.005
   0.47619048  0.33333333  0.19047619       0.005
   0.38095238  0.38095238  0.19047619       0.003
   0.42857143  0.38095238  0.19047619       0.005
   0.47619048  0.38095238  0.19047619       0.005
   0.42857143  0.42857143  0.19047619       0.003
   0.47619048  0.42857143  0.19047619       0.005
   0.47619048  0.47619048  0.19047619       0.003
   0.23809524  0.23809524  0.23809524       0.001
   0.28571429  0.23809524  0.23809524       0.003
   0.33333333  0.23809524  0.23809524       0.003
   0.38095238  0.23809524  0.23809524       0.003
   0.42857143  0.23809524  0.23809524       0.003
   0.47619048  0.23809524  0.23809524       0.003
   0.28571429  0.28571429  0.23809524       0.003
   0.33333333  0.28571429  0.23809524       0.005
   0.38095238  0.28571429  0.23809524       0.005
   0.42857143  0.28571429  0.23809524       0.005
   0.47619048  0.28571429  0.23809524       0.005
   0.33333333  0.33333333  0.23809524       0.003
   0.38095238  0.33333333  0.23809524       0.005
   0.42857143  0.33333333  0.23809524       0.005
   0.47619048  0.33333333  0.23809524       0.005
   0.38095238  0.38095238  0.23809524       0.003
   0.42857143  0.38095238  0.23809524       0.005
   0.47619048  0.38095238  0.23809524       0.005
   0.42857143  0.42857143  0.23809524       0.003
   0.47619048  0.42857143  0.23809524       0.005
   0.47619048  0.47619048  0.23809524       0.003
   0.28571429  0.28571429  0.28571429       0.001
   0.33333333  0.28571429  0.28571429       0.003
   0.38095238  0.28571429  0.28571429       0.003
   0.42857143  0.28571429  0.28571429       0.003
   0.47619048  0.28571429  0.28571429       0.003
   0.33333333  0.33333333  0.28571429       0.003
   0.38095238  0.33333333  0.28571429       0.005
   0.42857143  0.33333333  0.28571429       0.005
   0.47619048  0.33333333  0.28571429       0.005
   0.38095238  0.38095238  0.28571429       0.003
   0.42857143  0.38095238  0.28571429       0.005
   0.47619048  0.38095238  0.28571429       0.005
   0.42857143  0.42857143  0.28571429       0.003
   0.47619048  0.42857143  0.28571429       0.005
   0.47619048  0.47619048  0.28571429       0.003
   0.33333333  0.33333333  0.33333333       0.001
   0.38095238  0.33333333  0.33333333       0.003
   0.42857143  0.33333333  0.33333333       0.003
   0.47619048  0.33333333  0.33333333       0.003
   0.38095238  0.38095238  0.33333333       0.003
   0.42857143  0.38095238  0.33333333       0.005
   0.47619048  0.38095238  0.33333333       0.005
   0.42857143  0.42857143  0.33333333       0.003
   0.47619048  0.42857143  0.33333333       0.005
   0.47619048  0.47619048  0.33333333       0.003
   0.38095238  0.38095238  0.38095238       0.001
   0.42857143  0.38095238  0.38095238       0.003
   0.47619048  0.38095238  0.38095238       0.003
   0.42857143  0.42857143  0.38095238       0.003
   0.47619048  0.42857143  0.38095238       0.005
   0.47619048  0.47619048  0.38095238       0.003
   0.42857143  0.42857143  0.42857143       0.001
   0.47619048  0.42857143  0.42857143       0.003
   0.47619048  0.47619048  0.42857143       0.003
   0.47619048  0.47619048  0.47619048       0.001
 
 position of ions in fractional coordinates (direct lattice) 
   0.00000000  0.00000000  0.00000000
   0.50000000  0.50000000  0.50000000
 
 position of ions in cartesian coordinates  (Angst):
   0.00000000  0.00000000  0.00000000
   1.43500000  1.43500000  1.43500000
 


--------------------------------------------------------------------------------------------------------


 k-point  1 :   0.0000 0.0000 0.0000  plane waves:     739
 k-point  2 :   0.0476 0.0000 0.0000  plane waves:     723
 k-point  3 :   0.0952 0.0000 0.0000  plane waves:     715
 k-point  4 :   0.1429 0.0000 0.0000  plane waves:     703
 k-point  5 :   0.1905 0.0000 0.0000  plane waves:     695
 k-point  6 :   0.2381 0.0000 0.0000  plane waves:     695
 k-point  7 :   0.2857 0.0000 0.0000  plane waves:     687
 k-point  8 :   0.3333 0.0000 0.0000  plane waves:     687
 k-point  9 :   0.3810 0.0000 0.0000  plane waves:     695
 k-point 10 :   0.4286 0.0000 0.0000  plane waves:     695
 k-point 11 :   0.4762 0.0000 0.0000  plane waves:     695
 k-point 12 :   0.0476 0.0476 0.0000  plane waves:     719
 k-point 13 :   0.0952 0.0476 0.0000  plane waves:     718
 k-point 14 :   0.1429 0.0476 0.0000  plane waves:     709
 k-point 15 :   0.1905 0.0476 0.0000  plane waves:     696
 k-point 16 :   0.2381 0.0476 0.0000  plane waves:     695
 k-point 17 :   0.2857 0.0476 0.0000  plane waves:     693
 k-point 18 :   0.3333 0.0476 0.0000  plane waves:     692
 k-point 19 :   0.3810 0.0476 0.0000  plane waves:     692
 k-point 20 :   0.4286 0.0476 0.0000  plane waves:     692
 k-point 21 :   0.4762 0.0476 0.0000  plane waves:     689
 k-point 22 :   0.0952 0.0952 0.0000  plane waves:     705
 k-point 23 :   0.1429 0.0952 0.0000  plane waves:     699
 k-point 24 :   0.1905 0.0952 0.0000  plane waves:     699
 k-point 25 :   0.2381 0.0952 0.0000  plane waves:     697
 k-point 26 :   0.2857 0.0952 0.0000  plane waves:     695
 k-point 27 :   0.3333 0.0952 0.0000  plane waves:     691
 k-point 28 :   0.3810 0.0952 0.0000  plane waves:     696
 k-point 29 :   0.4286 0.0952 0.0000  plane waves:     687
 k-point 30 :   0.4762 0.0952 0.0000  plane waves:     687
 k-point 31 :   0.1429 0.1429 0.0000  plane waves:     698
 k-point 32 :   0.1905 0.1429 0.0000  plane waves:     697
 k-point 33 :   0.2381 0.1429 0.0000  plane waves:     695
 k-point 34 :   0.2857 0.1429 0.0000  plane waves:     695
 k-point 35 :   0.3333 0.1429 0.0000  plane waves:     692
 k-point 36 :   0.3810 0.1429 0.0000  plane waves:     691
 k-point 37 :   0.4286 0.1429 0.0000  plane waves:     697
 k-point 38 :   0.4762 0.1429 0.0000  plane waves:     692
 k-point 39 :   0.1905 0.1905 0.0000  plane waves:     698
 k-point 40 :   0.2381 0.1905 0.0000  plane waves:     699
 k-point 41 :   0.2857 0.1905 0.0000  plane waves:     698
 k-point 42 :   0.3333 0.1905 0.0000  plane waves:     696
 k-point 43 :   0.3810 0.1905 0.0000  plane waves:     692
 k-point 44 :   0.4286 0.1905 0.0000  plane waves:     691
[...]
      8       7.2991      1.00000
      9       7.5429      1.00000
     10       7.5814      1.00000
     11       7.7706      1.00000
     12       7.8299      1.00000
     13      11.0797      0.00000
     14      11.0847      0.00000
     15      11.1357      0.00000
     16      11.1389      0.00000
     17      15.7016      0.00000
     18      16.2411      0.00000
     19      18.2487      0.00000
     20      18.9498      0.00000
     21      19.8899      0.00000
     22      20.4625      0.00000
     23      22.0332      0.00000
     24      22.7141      0.00000

 k-point   282 :       0.4762    0.4762    0.3810
  band No.  band energies     occupation 
      1     -42.2884      1.00000
      2     -42.2845      1.00000
      3     -42.2094      1.00000
      4     -42.1988      1.00000
      5     -42.1394      1.00000
      6     -42.1345      1.00000
      7       7.2955      1.00000
      8       7.3114      1.00000
      9       7.5156      1.00000
     10       7.5330      1.00000
     11       7.8379      1.00000
     12       7.8590      1.00000
     13      11.0935      0.00000
     14      11.0953      0.00000
     15      11.1489      0.00000
     16      11.1500      0.00000
     17      16.1699      0.00000
     18      16.4325      0.00000
     19      18.0427      0.00000
     20      18.3551      0.00000
     21      20.3620      0.00000
     22      20.7617      0.00000
     23      21.5094      0.00000
     24      21.9407      0.00000

 k-point   283 :       0.4286    0.4286    0.4286
  band No.  band energies     occupation 
      1     -42.2916      1.00000
      2     -42.2528      1.00000
      3     -42.2528      1.00000
      4     -42.1655      1.00000
      5     -42.1655      1.00000
      6     -42.1265      1.00000
      7       7.3153      1.00000
      8       7.5276      1.00000
      9       7.5346      1.00000
     10       7.5346      1.00000
     11       7.7015      1.00000
     12       7.7015      1.00000
     13      11.1158      0.00000
     14      11.1158      0.00000
     15      11.1235      0.00000
     16      11.1235      0.00000
     17      15.7294      0.00000
     18      17.4322      0.00000
     19      17.4322      0.00000
     20      19.2670      0.00000
     21      20.0112      0.00000
     22      20.0112      0.00000
     23      21.1138      0.00000
     24      22.6371      0.00000

 k-point   284 :       0.4762    0.4286    0.4286
  band No.  band energies     occupation 
      1     -42.2780      1.00000
      2     -42.2653      1.00000
      3     -42.2236      1.00000
      4     -42.1943      1.00000
      5     -42.1558      1.00000
      6     -42.1423      1.00000
      7       7.3681      1.00000
      8       7.4358      1.00000
      9       7.5584      1.00000
     10       7.6132      1.00000
     11       7.6701      1.00000
     12       7.7244      1.00000
     13      11.1190      0.00000
     14      11.1219      0.00000
     15      11.1414      0.00000
     16      11.1438      0.00000
     17      16.3055      0.00000
     18      16.8948      0.00000
     19      18.2636      0.00000
     20      19.1241      0.00000
     21      19.4634      0.00000
     22      19.8432      0.00000
     23      21.2316      0.00000
     24      21.8499      0.00000

 k-point   285 :       0.4762    0.4762    0.4286
  band No.  band energies     occupation 
      1     -42.2631      1.00000
      2     -42.2558      1.00000
      3     -42.2173      1.00000
      4     -42.2009      1.00000
      5     -42.1674      1.00000
      6     -42.1593      1.00000
      7       7.4302      1.00000
      8       7.4838      1.00000
      9       7.5194      1.00000
     10       7.5677      1.00000
     11       7.6997      1.00000
     12       7.7191      1.00000
     13      11.1331      0.00000
     14      11.1341      0.00000
     15      11.1525      0.00000
     16      11.1534      0.00000
     17      16.8803      0.00000
     18      17.2437      0.00000
     19      18.1858      0.00000
     20      18.6572      0.00000
     21      19.6022      0.00000
     22      19.8470      0.00000
     23      20.7837      0.00000
     24      21.1254      0.00000

 k-point   286 :       0.4762    0.4762    0.4762
  band No.  band energies     occupation 
      1     -42.2409      1.00000
      2     -42.2262      1.00000
      3     -42.2262      1.00000
      4     -42.1966      1.00000
      5     -42.1966      1.00000
      6     -42.1819      1.00000
      7       7.4995      1.00000
      8       7.5519      1.00000
      9       7.5519      1.00000
     10       7.6174      1.00000
     11       7.6174      1.00000
     12       7.6257      1.00000
     13      11.1546      0.00000
     14      11.1546      0.00000
     15      11.1549      0.00000
     16      11.1549      0.00000
     17      17.5590      0.00000
     18      18.0850      0.00000
     19      18.0850      0.00000
     20      18.9537      0.00000
     21      18.9537      0.00000
     22      19.1461      0.00000
     23      20.3770      0.00000
     24      20.5236      0.00000


--------------------------------------------------------------------------------------------------------


 soft charge-density along one line, spin component           1
         0         1         2         3         4         5         6         7         8         9
 total charge-density along one line
 
 soft charge-density along one line, spin component           2
         0         1         2         3         4         5         6         7         8         9
 total charge-density along one line
 
 pseudopotential strength for first ion, spin component:           1
-45.160  -0.000   0.000   7.693   0.000  -0.000   0.000   0.000
 -0.000 -45.160  -0.000   0.000   7.693   0.000  -0.000   0.000
  0.000  -0.000 -45.160  -0.000   0.000   7.693   0.000  -0.000
  7.693   0.000  -0.000   5.610   0.000  -0.000  -0.000  -0.000
  0.000   7.693   0.000   0.000   5.610   0.000   0.000  -0.000
 -0.000   0.000   7.693  -0.000   0.000   5.610  -0.000   0.000
  0.000  -0.000   0.000  -0.000   0.000  -0.000  -2.231  -0.000
  0.000   0.000  -0.000  -0.000  -0.000   0.000  -0.000  -2.231
 -0.000   0.000   0.000   0.000  -0.000  -0.000  -0.000   0.000
 -0.000   0.000   0.000   0.000  -0.000  -0.000  -0.000   0.000
 -0.000   0.000  -0.000   0.000  -0.000  -0.000   0.000   0.000
  0.000  -0.000   0.000  -0.000   0.000  -0.000  -2.742  -0.000
  0.000   0.000  -0.000  -0.000  -0.000   0.000  -0.000  -2.742
 -0.000   0.000   0.000   0.000  -0.000  -0.000  -0.000   0.000
 -0.000   0.000   0.000   0.000  -0.000  -0.000  -0.000   0.000
 -0.000   0.000  -0.000   0.000  -0.000   0.000   0.000   0.000
 -0.000  -0.000  -0.000  -0.000  -0.000  -0.000  -0.000   0.000
 -0.000  -0.000  -0.000  -0.000  -0.000  -0.000  -0.000   0.000
 pseudopotential strength for first ion, spin component:           2
-43.137  -0.000   0.000   6.839   0.000  -0.000  -0.000   0.000
 -0.000 -43.137  -0.000   0.000   6.839   0.000   0.000   0.000
  0.000  -0.000 -43.137  -0.000   0.000   6.839   0.000   0.000
  6.839   0.000  -0.000   5.846   0.000  -0.000   0.000  -0.000
  0.000   6.839   0.000   0.000   5.846   0.000  -0.000  -0.000
 -0.000   0.000   6.839  -0.000   0.000   5.846  -0.000  -0.000
 -0.000   0.000   0.000   0.000  -0.000  -0.000  -0.653  -0.000
  0.000   0.000   0.000  -0.000  -0.000  -0.000  -0.000  -0.653
 -0.000   0.000   0.000   0.000  -0.000  -0.000  -0.000   0.000
  0.000   0.000   0.000  -0.000   0.000  -0.000  -0.000   0.000
 -0.000   0.000  -0.000   0.000  -0.000   0.000   0.000   0.000
 -0.000   0.000   0.000   0.000  -0.000  -0.000  -1.190  -0.000
  0.000   0.000   0.000  -0.000  -0.000  -0.000  -0.000  -1.190
 -0.000   0.000   0.000   0.000  -0.000  -0.000  -0.000   0.000
  0.000   0.000   0.000  -0.000   0.000  -0.000  -0.000   0.000
 -0.000   0.000  -0.000   0.000  -0.000   0.000   0.000   0.000
 -0.000  -0.000   0.000  -0.000  -0.000   0.000  -0.000   0.000
 -0.000  -0.000   0.000  -0.000  -0.000   0.000  -0.000   0.000
 total augmentation occupancy for first ion, spin component:           1
  1.992   0.000   0.000  -0.027   0.000   0.000   0.000   0.000   0.000   0.000   0.000   0.000   0.000   0.000  -0.000   0.000
  0.000   1.992   0.000  -0.000  -0.027  -0.000   0.000   0.000   0.000   0.000   0.000  -0.000   0.000   0.000   0.000   0.000
  0.000   0.000   1.992   0.000   0.000  -0.027  -0.000   0.000   0.000   0.000   0.000   0.000  -0.000  -0.000   0.000   0.000
 -0.027  -0.000   0.000   0.190  -0.000  -0.000   0.000   0.000   0.000  -0.000   0.000   0.000   0.000   0.000   0.000   0.000
  0.000  -0.027   0.000   0.000   0.190   0.000  -0.000   0.000   0.000   0.000   0.000   0.000   0.000   0.000   0.000   0.000
  0.000  -0.000  -0.027  -0.000  -0.000   0.190   0.000  -0.000   0.000   0.000   0.000   0.000   0.000   0.000  -0.000   0.000
  0.000   0.000   0.000   0.000   0.000  -0.000   2.213  -0.000  -0.000  -0.000  -0.000  -1.201   0.000   0.000  -0.000  -0.000
  0.000   0.000   0.000   0.000  -0.000  -0.000   0.000   2.213  -0.000   0.000  -0.000  -0.000  -1.201  -0.000   0.000   0.000
  0.000   0.000   0.000   0.000   0.000   0.000   0.000   0.000   3.295   0.000   0.000   0.000  -0.000  -2.049   0.000  -0.000
 -0.000   0.000   0.000  -0.000   0.000  -0.000   0.000   0.000   0.000   2.213   0.000  -0.000  -0.000   0.000  -1.201   0.000
 -0.000   0.000   0.000   0.000   0.000   0.000  -0.000  -0.000   0.000   0.000   3.295   0.000   0.000   0.000   0.000  -2.049
  0.000  -0.000   0.000   0.000   0.000   0.000  -1.201  -0.000  -0.000  -0.000  -0.000   1.567   0.000   0.000   0.000   0.000
  0.000   0.000   0.000   0.000  -0.000   0.000  -0.000  -1.201   0.000   0.000   0.000   0.000   1.567   0.000   0.000   0.000
  0.000   0.000   0.000   0.000   0.000   0.000   0.000   0.000  -2.049   0.000  -0.000  -0.000   0.000   2.063   0.000   0.000
 -0.000   0.000   0.000   0.000  -0.000  -0.000  -0.000  -0.000   0.000  -1.201   0.000   0.000  -0.000   0.000   1.567   0.000
 -0.000   0.000  -0.000   0.000   0.000   0.000   0.000   0.000   0.000   0.000  -2.049   0.000  -0.000  -0.000   0.000   2.063
  0.000   0.000  -0.000   0.000   0.000   0.000  -0.000  -0.000  -0.000   0.000  -0.000  -0.000   0.000   0.000  -0.000  -0.000
 -0.000  -0.000  -0.000   0.000   0.000   0.000   0.000   0.000   0.000   0.000   0.000   0.000   0.000  -0.000  -0.000   0.000
 total augmentation occupancy for first ion, spin component:           2
 -0.002   0.000   0.000  -0.009   0.000  -0.000   0.000   0.000   0.000   0.000   0.000   0.000   0.000   0.000   0.000  -0.000
  0.000  -0.002   0.000   0.000  -0.009  -0.000   0.000   0.000   0.000   0.000   0.000   0.000  -0.000   0.000   0.000   0.000
  0.000   0.000  -0.002  -0.000  -0.000  -0.009   0.000   0.000  -0.000   0.000   0.000   0.000  -0.000   0.000  -0.000   0.000
 -0.009   0.000  -0.000  -0.019   0.000  -0.000   0.000  -0.000   0.000   0.000   0.000   0.000  -0.000   0.000   0.000  -0.000
 -0.000  -0.009  -0.000  -0.000  -0.019   0.000   0.000   0.000   0.000  -0.000   0.000   0.000   0.000   0.000   0.000   0.000
 -0.000  -0.000  -0.009   0.000  -0.000  -0.019   0.000   0.000   0.000  -0.000   0.000   0.000   0.000   0.000  -0.000   0.000
  0.000   0.000   0.000   0.000   0.000  -0.000   1.845  -0.000   0.000   0.000  -0.000  -0.705  -0.000   0.000  -0.000  -0.000
  0.000   0.000   0.000   0.000   0.000   0.000  -0.000   1.845   0.000  -0.000   0.000   0.000  -0.705  -0.000   0.000   0.000
  0.000   0.000  -0.000  -0.000  -0.000   0.000  -0.000   0.000   2.774  -0.000   0.000   0.000   0.000  -1.127   0.000  -0.000
  0.000   0.000  -0.000   0.000   0.000  -0.000   0.000  -0.000  -0.000   1.845  -0.000   0.000   0.000   0.000  -0.705  -0.000
  0.000   0.000   0.000   0.000   0.000   0.000   0.000   0.000   0.000  -0.000   2.774   0.000   0.000   0.000  -0.000  -1.127
  0.000  -0.000  -0.000   0.000  -0.000   0.000  -0.705  -0.000  -0.000   0.000   0.000   0.020  -0.000  -0.000   0.000   0.000
  0.000   0.000   0.000  -0.000   0.000   0.000  -0.000  -0.705   0.000   0.000  -0.000  -0.000   0.020  -0.000  -0.000  -0.000
  0.000   0.000   0.000  -0.000  -0.000   0.000   0.000   0.000  -1.127   0.000   0.000  -0.000  -0.000   0.217  -0.000   0.000
 -0.000  -0.000   0.000   0.000   0.000  -0.000   0.000   0.000   0.000  -0.705   0.000   0.000  -0.000  -0.000   0.020   0.000
  0.000   0.000   0.000   0.000   0.000  -0.000   0.000   0.000   0.000  -0.000  -1.127  -0.000  -0.000   0.000   0.000   0.217
  0.000   0.000   0.000   0.000   0.000   0.000   0.000  -0.000   0.000  -0.000   0.000  -0.000   0.000   0.000  -0.000  -0.000
  0.000   0.000  -0.000  -0.000   0.000  -0.000  -0.000  -0.000  -0.000   0.000   0.000   0.000   0.000   0.000   0.000   0.000


------------------------ aborting loop because EDIFF is reached ----------------------------------------


 


 total charge     
 
# of ion       s       p       d       tot
------------------------------------------
    1        0.374   6.355   6.061  12.791
    2        0.374   6.355   6.061  12.791
--------------------------------------------------
tot          0.749  12.711  12.122  25.582
 


 magnetization (x)
 
# of ion       s       p       d       tot
------------------------------------------
    1       -0.008  -0.040   2.357   2.309
    2       -0.008  -0.040   2.357   2.309
--------------------------------------------------
tot         -0.017  -0.079   4.714   4.619
 
    CHARGE:  cpu time    0.0521: real time    0.0523
    FORLOC:  cpu time    0.0002: real time    0.0002
    FORNL :  cpu time    0.4715: real time    0.4726
    STRESS:  cpu time    0.7746: real time    0.7764
    FORCOR:  cpu time    0.0050: real time    0.0051
    FORHAR:  cpu time    0.0005: real time    0.0006
    MIXING:  cpu time    0.0004: real time    0.0004
    OFIELD:  cpu time    0.0000: real time    0.0000

  FORCE on cell =-STRESS in cart. coord.  units (eV):
  Direction    XX          YY          ZZ          XY          YZ          ZX
  --------------------------------------------------------------------------------------
  Alpha Z   212.09010   212.09010   212.09010
  Ewald   -1192.94076 -1192.94076 -1192.94076     0.00000    -0.00000    -0.00000
  Hartree   370.33430   370.33430   370.33430    -0.00000    -0.00000    -0.00000
  E(xc)    -179.68880  -179.68880  -179.68880    -0.00000     0.00000    -0.00000
  Local     277.59694   277.59694   277.59694     0.00000    -0.00000    -0.00000
  n-local   -61.08234   -55.11893   -51.51546     2.78522    -1.42136     0.60226
  augment   285.45684   285.45684   285.45693     0.00000     0.00003     0.00003
  Kinetic   283.23391   281.88971   281.10925     2.58579    -0.75128    -0.07156
  Fock        0.00000     0.00000     0.00000     0.00000     0.00000     0.00000
  -------------------------------------------------------------------------------------
  Total      -0.97931    -0.97931    -0.97931     0.00000     0.00000    -0.00000
  in kB     -66.37179   -66.37179   -66.37179     0.00000     0.00000    -0.00000
  external pressure =      -66.37 kB  Pullay stress =        0.00 kB


 VOLUME and BASIS-vectors are now :
 -----------------------------------------------------------------------------
  energy-cutoff  :      550.00
  volume of cell :       23.64
      direct lattice vectors                 reciprocal lattice vectors
     2.870000000  0.000000000  0.000000000     0.348432056  0.000000000  0.000000000
     0.000000000  2.870000000  0.000000000     0.000000000  0.348432056  0.000000000
     0.000000000  0.000000000  2.870000000     0.000000000  0.000000000  0.348432056

  length of vectors
     2.870000000  2.870000000  2.870000000     0.348432056  0.348432056  0.348432056


 FORCES acting on ions
    electron-ion (+dipol)            ewald-force                    non-local-force                 convergence-correction
 -----------------------------------------------------------------------------------------------
   0.106E-13 -.271E-15 0.384E-13   0.148E-14 -.157E-13 -.631E-14   0.000E+00 0.000E+00 0.000E+00   -.201E-13 -.140E-14 0.473E-13
   0.354E-12 0.395E-11 0.103E-11   -.242E-14 0.115E-13 0.329E-14   0.000E+00 -.775E-25 0.000E+00   -.191E-13 0.169E-14 0.149E-13
 -----------------------------------------------------------------------------------------------
   0.365E-12 0.395E-11 0.106E-11   -.937E-15 -.426E-14 -.302E-14   0.000E+00 -.775E-25 0.000E+00   -.392E-13 0.296E-15 0.622E-13
 
 
 POSITION                                       TOTAL-FORCE (eV/Angst)
 -----------------------------------------------------------------------------------
      0.00000      0.00000      0.00000        -0.000000     -0.000000     -0.000000
      1.43500      1.43500      1.43500         0.000000      0.000000      0.000000
 -----------------------------------------------------------------------------------
    total drift:                                0.000000      0.000000      0.000000
 
 
 POSITION                                       TOTAL-FORCE + BIAS-FORCE (eV/Angst)
 -----------------------------------------------------------------------------------
      0.00000      0.00000      0.00000        -0.000000     -0.000000     -0.000000
      1.43500      1.43500      1.43500         0.000000      0.000000      0.000000
 -----------------------------------------------------------------------------------
    total drift:                                0.000000      0.000000      0.000000


--------------------------------------------------------------------------------------------------------



  FREE ENERGIE OF THE ION-ELECTRON SYSTEM (eV)
  ---------------------------------------------------
  free  energy   TOTEN  =       -16.49474174 eV

  energy  without entropy=      -16.49474174  energy(sigma->0) =      -16.49474174
 


--------------------------------------------------------------------------------------------------------


    POTLOK:  cpu time    0.0131: real time    0.0139


--------------------------------------------------------------------------------------------------------


     LOOP+:  cpu time   38.0675: real time   38.5862
    4ORBIT:  cpu time    0.0000: real time    0.0000
 


 total charge     
 
# of ion       s       p       d       tot
------------------------------------------
    1        0.374   6.355   6.061  12.791
    2        0.374   6.355   6.061  12.791
--------------------------------------------------
tot          0.749  12.711  12.122  25.582
 


 magnetization (x)
 
# of ion       s       p       d       tot
------------------------------------------
    1       -0.008  -0.040   2.357   2.309
    2       -0.008  -0.040   2.357   2.309
--------------------------------------------------
tot         -0.017  -0.079   4.714   4.619
 
 BZINTS: Fermi energy:  9.183027; 28.000000 electrons
         Band energy:-409.243662;  BLOECHL correction: -0.011597

 total amount of memory used by VASP MPI-rank0   105372. kBytes
=======================================================================

   base      :      30000. kBytes
   nonl-proj :      30499. kBytes
   fftplans  :       1246. kBytes
   grid      :        954. kBytes
   one-center:         62. kBytes
   wavefun   :      42611. kBytes
 
  
  
 General timing and accounting informations for this job:
 ========================================================
  
                  Total CPU time used (sec):       40.533
                            User time (sec):       33.903
                          System time (sec):        6.629
                         Elapsed time (sec):       42.236
  
                   Maximum memory used (kb):      213244.
                   Average memory used (kb):           0.
  
                          Minor page faults:      1225766
                          Major page faults:            0
                 Voluntary context switches:          828
