id,formula,X,Y,Z,energy,formation,volume,spacegroup,band_gap,tot_mag,X1_mag,X2_mag,Y_mag,Z_mag
717096,Cr2SiNi,Cr,Ni,Si,-7.697,-0.195,11.53,F-43m,0.0,0.474,2.12,-0.828,0.585,-0.005
733379,Cr2NiSn,Cr,Ni,Sn,-7.009,0.116,14.57,F-43m,0.0,0.212,3.042,-2.534,0.314,-0.008
1123498,ZnCr2Ni,Cr,Ni,Zn,-6.245,0.217,11.849,F-43m,0.0,-0.002,0.005,-0.006,-0.002,0.0
735657,AlCr2Pd,Cr,Pd,Al,-6.877,0.108,13.924,F-43m,0.0,1.748,3.203,3.383,0.28,-0.058
387582,Cr2AsPd,Cr,Pd,As,-7.078,0.134,14.822,Fm-3m,0.0,1.788,3.358,3.358,0.199,-0.114
735656,Cr2BPd,Cr,Pd,B,-7.332,0.386,11.617,F-43m,0.0,0.252,2.43,-1.675,0.229,0.024
386692,Cr2BiPd,Cr,Pd,Bi,-6.705,0.353,17.202,Fm-3m,0.0,1.859,3.498,3.498,0.14,-0.13
388305,Cr2GaPd,Cr,Pd,Ga,-6.686,0.12,14.809,Fm-3m,0.0,1.72,3.202,3.202,0.263,-0.075
388306,Cr2GePd,Cr,Pd,Ge,-7.091,0.113,14.827,Fm-3m,0.0,1.663,3.177,3.177,0.186,-0.161
735663,Cr2InPd,Cr,Pd,In,-6.484,0.245,16.141,F-43m,0.0,1.768,3.34,3.433,0.165,-0.113
386222,MgCr2Pd,Cr,Pd,Mg,-6.069,0.366,15.398,Fm-3m,0.0,1.863,3.358,3.358,0.279,-0.001
386584,Cr2PdPb,Cr,Pd,Pb,-6.587,0.387,16.755,Fm-3m,0.0,1.786,3.373,3.373,0.192,-0.123
386341,Cr2SbPd,Cr,Pd,Sb,-6.915,0.162,16.396,Fm-3m,0.0,1.821,3.425,3.425,0.178,-0.128
735658,Cr2SiPd,Cr,Pd,Si,-7.509,-0.105,12.991,F-43m,0.0,0.494,2.748,-1.132,0.305,0.011
387068,Cr2SnPd,Cr,Pd,Sn,-6.879,0.148,16.045,Fm-3m,0.0,1.76,3.308,3.308,0.232,-0.136
735659,ZnCr2Pd,Cr,Pd,Zn,-6.133,0.232,13.087,F-43m,0.0,0.002,-0.006,-0.002,-0.001,0.0
744738,AlCr2Pt,Cr,Pt,Al,-7.504,-0.3,13.829,F-43m,0.0,0.249,2.84,-2.071,0.218,0.001
387895,Cr2AsPt,Cr,Pt,As,-7.315,0.116,13.362,Fm-3m,0.0,0.0,0.0,0.0,0.0,0.0
744737,Cr2BPt,Cr,Pt,B,-7.664,0.274,11.681,F-43m,0.0,0.257,2.275,-1.436,0.149,0.023
388703,Cr2BiPt,Cr,Pt,Bi,-6.958,0.32,17.267,Fm-3m,0.0,1.838,3.464,3.464,0.126,-0.114
744741,Cr2GaPt,Cr,Pt,Ga,-7.17,-0.144,13.334,F-43m,0.0,0.252,2.781,-2.001,0.203,-0.004
386967,Cr2GePt,Cr,Pt,Ge,-7.303,0.121,13.71,Fm-3m,0.0,0.556,1.108,1.108,0.006,-0.052
744744,Cr2InPt,Cr,Pt,In,-6.786,0.162,16.421,F-43m,0.0,1.764,3.24,3.518,0.129,-0.098
388225,MgCr2Pt,Cr,Pt,Mg,-6.463,0.19,14.753,Fm-3m,0.0,1.563,2.898,2.898,0.218,-0.004
386525,Cr2PtPb,Cr,Pt,Pb,-6.845,0.35,16.574,Fm-3m,0.0,1.775,3.326,3.326,0.215,-0.089
387174,Cr2SbPt,Cr,Pt,Sb,-7.05,0.248,14.706,Fm-3m,0.0,0.011,0.024,0.024,-0.003,-0.001
744739,Cr2SiPt,Cr,Pt,Si,-7.827,-0.202,13.107,F-43m,0.0,0.497,2.691,-1.009,0.246,0.009
387768,Cr2SnPt,Cr,Pt,Sn,-7.15,0.097,16.075,Fm-3m,0.0,1.755,3.277,3.277,0.255,-0.103
1123499,ZnCr2Pt,Cr,Pt,Zn,-6.5,0.085,13.146,F-43m,0.0,0.001,-0.005,0.006,-0.001,0.0
735671,AlCr2Rh,Cr,Rh,Al,-7.681,-0.173,12.745,F-43m,0.0,-0.024,0.005,-0.061,-0.015,0.001
735676,Cr2AsRh,Cr,Rh,As,-7.755,-0.021,13.279,F-43m,0.0,0.497,2.741,-1.138,0.27,0.046
735670,Cr2BRh,Cr,Rh,B,-8.039,0.202,10.847,F-43m,0.0,-0.027,-0.023,-0.066,-0.013,0.002
735681,Cr2BiRh,Cr,Rh,Bi,-7.133,0.449,16.695,F-43m,0.0,2.002,3.552,3.711,0.342,-0.048
735674,Cr2GaRh,Cr,Rh,Ga,-7.373,-0.043,12.863,F-43m,0.0,0.007,0.01,0.011,0.002,0.0
735675,Cr2GeRh,Cr,Rh,Ge,-7.851,-0.123,13.476,F-43m,0.0,0.253,2.719,-1.962,0.227,0.011
735677,Cr2InRh,Cr,Rh,In,-6.96,0.292,14.379,F-43m,0.0,-0.014,0.004,-0.041,0.002,0.001
388525,MgCr2Rh,Cr,Rh,Mg,-6.603,0.354,14.246,Fm-3m,0.0,1.367,2.474,2.474,0.288,0.001
735680,Cr2RhPb,Cr,Rh,Pb,-7.054,0.443,16.221,F-43m,0.0,1.746,3.237,3.409,0.174,-0.097
735679,Cr2SbRh,Cr,Rh,Sb,-7.58,0.021,14.854,F-43m,0.0,0.496,3.048,-1.494,0.328,0.025
735672,Cr2SiRh,Cr,Rh,Si,-8.203,-0.276,12.654,F-43m,0.0,0.25,2.32,-1.512,0.189,0.007
735678,Cr2SnRh,Cr,Rh,Sn,-7.593,-0.043,15.268,F-43m,0.0,0.253,3.121,-2.465,0.292,0.006
1123507,ZnCr2Rh,Cr,Rh,Zn,-6.885,0.003,13.559,F-43m,0.0,0.218,2.959,-2.298,0.057,0.054
735629,AlCr2Ru,Cr,Ru,Al,-8.104,-0.112,12.687,F-43m,0.0,0.004,0.001,0.014,0.003,-0.001
735634,Cr2AsRu,Cr,Ru,As,-8.2,0.017,13.042,F-43m,0.0,0.256,2.294,-1.307,-0.072,0.05
735628,Cr2BRu,Cr,Ru,B,-8.543,0.181,10.796,F-43m,0.0,0.033,-0.034,0.129,0.02,-0.002
735639,Cr2BiRu,Cr,Ru,Bi,-7.508,0.556,16.007,F-43m,0.0,0.727,2.471,-0.383,0.041,-0.008
735632,Cr2GaRu,Cr,Ru,Ga,-7.796,0.016,12.803,F-43m,0.0,0.016,0.038,0.013,0.006,-0.001
735633,Cr2GeRu,Cr,Ru,Ge,-8.197,0.014,12.798,F-43m,0.0,0.134,-0.002,0.479,0.051,-0.005
735635,Cr2InRu,Cr,Ru,In,-7.328,0.406,14.278,F-43m,0.0,0.246,0.562,0.266,0.038,-0.014
386500,MgCr2Ru,Cr,Ru,Mg,-7.027,0.413,13.768,Fm-3m,0.0,0.994,2.001,2.001,-0.219,-0.001
735638,Cr2RuPb,Cr,Ru,Pb,-7.341,0.64,16.025,F-43m,0.0,0.653,1.782,0.721,0.033,-0.014
735637,Cr2SbRu,Cr,Ru,Sb,-7.971,0.113,14.773,F-43m,0.0,0.255,2.751,-1.834,0.012,0.029
735630,Cr2SiRu,Cr,Ru,Si,-8.628,-0.217,12.149,F-43m,0.0,0.08,-0.11,0.321,0.037,-0.005
735636,Cr2SnRu,Cr,Ru,Sn,-7.803,0.23,14.311,F-43m,0.0,0.494,0.928,0.879,0.086,-0.014
748843,ZnCr2Ru,Cr,Ru,Zn,-7.174,0.197,12.684,F-43m,0.0,0.005,-0.001,0.02,-0.001,0.0
736007,AlFe2Ag,Fe,Ag,Al,-5.72,0.075,13.648,F-43m,0.0,1.162,2.589,2.152,0.009,-0.036
526237,Fe2AgAs,Fe,Ag,As,-5.687,0.336,13.721,Fm-3m,0.0,1.179,2.377,2.377,0.052,-0.04
736006,Fe2AgB,Fe,Ag,B,-5.828,0.701,11.791,F-43m,0.0,1.181,2.597,2.12,0.044,-0.044
526016,Fe2AgBi,Fe,Ag,Bi,-5.33,0.539,16.328,Fm-3m,0.0,1.218,2.479,2.479,0.021,-0.055
736010,GaFe2Ag,Fe,Ag,Ga,-5.453,0.164,13.986,F-43m,0.0,1.227,2.667,2.295,0.017,-0.065
736011,Fe2AgGe,Fe,Ag,Ge,-5.734,0.281,14.282,F-43m,0.0,1.285,2.743,2.358,0.025,-0.014
736013,InFe2Ag,Fe,Ag,In,-5.252,0.288,15.644,F-43m,0.0,1.286,2.763,2.456,0.01,-0.067
525714,MgFe2Ag,Fe,Ag,Mg,-4.826,0.419,14.403,Fm-3m,0.0,1.273,2.637,2.637,0.006,-0.04
736016,Fe2AgPb,Fe,Ag,Pb,-5.262,0.523,16.981,F-43m,0.0,1.37,2.852,2.592,0.02,-0.007
527125,Fe2AgSb,Fe,Ag,Sb,-5.543,0.346,15.147,Fm-3m,0.0,1.138,2.309,2.309,0.038,-0.049
736008,Fe2SiAg,Fe,Ag,Si,-6.007,0.208,13.19,F-43m,0.0,1.155,2.595,2.043,0.01,-0.021
736014,Fe2AgSn,Fe,Ag,Sn,-5.573,0.265,15.689,F-43m,0.0,1.272,2.754,2.348,0.007,-0.047
736009,ZnFe2Ag,Fe,Ag,Zn,-4.945,0.231,13.826,F-43m,0.0,1.23,2.641,2.392,0.016,-0.057
743862,AlFe2Au,Fe,Au,Al,-6.007,-0.1,13.863,F-43m,0.0,1.265,2.728,2.3,0.056,-0.025
525393,Fe2AsAu,Fe,Au,As,-5.901,0.233,14.044,Fm-3m,0.0,1.178,2.374,2.374,0.068,-0.059
743861,Fe2BAu,Fe,Au,B,-6.043,0.597,12.074,F-43m,0.0,1.285,2.698,2.291,0.098,-0.013
527356,Fe2BiAu,Fe,Au,Bi,-5.55,0.43,16.466,Fm-3m,0.0,1.202,2.451,2.451,0.03,-0.074
743865,GaFe2Au,Fe,Au,Ga,-5.683,0.046,13.751,F-43m,0.0,1.283,2.728,2.346,0.059,-0.042
525885,Fe2GeAu,Fe,Au,Ge,-5.942,0.185,14.077,Fm-3m,0.0,1.219,2.459,2.459,0.072,-0.078
743868,InFe2Au,Fe,Au,In,-5.478,0.173,15.816,F-43m,0.0,1.328,2.814,2.506,0.034,-0.052
1141786,MgFe2Au,Fe,Au,Mg,-5.323,0.038,14.671,F-43m,0.0,1.28,5.0,5.0,0.0,0.0
527349,Fe2PbAu,Fe,Au,Pb,-5.465,0.432,16.37,Fm-3m,0.0,1.292,2.618,2.618,0.04,-0.064
526531,Fe2SbAu,Fe,Au,Sb,-5.751,0.249,15.402,Fm-3m,0.0,1.126,2.292,2.292,0.051,-0.064
527076,Fe2SiAu,Fe,Au,Si,-6.206,0.121,13.022,Fm-3m,0.0,0.981,2.027,2.027,0.062,-0.093
526626,Fe2SnAu,Fe,Au,Sn,-5.761,0.188,15.184,Fm-3m,0.0,1.137,2.336,2.336,0.038,-0.128
1122457,ZnFe2Au,Fe,Au,Zn,-5.218,0.069,13.897,F-43m,0.0,1.277,2.449,2.693,0.043,-0.047
736021,AlCdFe2,Fe,Cd,Al,-5.122,0.194,13.482,F-43m,0.0,1.069,2.329,2.072,-0.036,-0.029
526759,CdFe2As,Fe,Cd,As,-5.155,0.387,14.184,Fm-3m,0.0,1.062,2.211,2.211,-0.053,-0.047
736020,CdFe2B,Fe,Cd,B,-5.272,0.777,12.374,F-43m,0.0,1.158,2.446,2.181,-0.014,-0.02
526766,CdFe2Bi,Fe,Cd,Bi,-4.82,0.569,16.832,Fm-3m,0.0,1.082,2.282,2.282,-0.067,-0.066
736024,CdGaFe2,Fe,Cd,Ga,-4.893,0.244,14.561,F-43m,0.0,1.196,2.527,2.331,-0.028,-0.048
526656,CdFe2Ge,Fe,Cd,Ge,-5.2,0.335,14.339,Fm-3m,0.0,1.093,2.262,2.262,-0.033,-0.065
736027,CdInFe2,Fe,Cd,In,-4.699,0.36,16.518,F-43m,0.0,1.26,2.636,2.495,-0.029,-0.052
527738,MgCdFe2,Fe,Cd,Mg,-4.377,0.387,14.855,Fm-3m,0.0,1.221,2.542,2.542,-0.051,-0.037
526516,CdFe2Pb,Fe,Cd,Pb,-4.732,0.573,16.464,Fm-3m,0.0,1.155,2.396,2.396,-0.049,-0.054
526967,CdFe2Sb,Fe,Cd,Sb,-5.017,0.391,15.519,Fm-3m,0.0,0.994,2.089,2.089,-0.051,-0.054
526042,CdFe2Si,Fe,Cd,Si,-5.457,0.278,13.009,Fm-3m,0.0,0.794,1.692,1.692,-0.027,-0.079
527101,CdFe2Sn,Fe,Cd,Sn,-5.033,0.324,15.531,Fm-3m,0.0,1.043,2.189,2.189,-0.046,-0.105
748579,ZnCdFe2,Fe,Cd,Zn,-4.446,0.249,14.422,F-43m,0.0,1.204,2.494,2.45,-0.042,-0.051
716726,AlFe2Co,Fe,Co,Al,-7.135,-0.273,11.401,F-43m,0.0,1.231,0.0,0.0,0.0,0.0
733724,Fe2CoAs,Fe,Co,As,-7.149,-0.06,11.771,F-43m,0.0,1.478,2.778,1.858,1.217,0.034
733718,Fe2CoB,Fe,Co,B,-7.531,0.065,9.529,F-43m,0.0,1.082,0.0,0.0,0.0,0.0
716736,Fe2CoBi,Fe,Co,Bi,-6.552,0.384,13.687,F-43m,0.0,1.496,2.835,1.993,1.167,-0.007
733722,GaFe2Co,Fe,Co,Ga,-6.844,-0.16,11.649,F-43m,0.0,1.27,2.558,1.665,1.018,-0.093
716730,Fe2CoGe,Fe,Co,Ge,-7.251,-0.168,11.621,F-43m,0.0,1.266,2.677,1.471,0.98,-0.05
733725,InFe2Co,Fe,Co,In,-6.473,0.134,13.338,F-43m,0.0,1.483,2.643,2.22,1.247,-0.099
526823,MgFe2Co,Fe,Co,Mg,-6.118,0.194,12.141,Fm-3m,0.0,1.554,2.367,2.367,1.669,-0.03
733728,Fe2CoPb,Fe,Co,Pb,-6.495,0.357,14.261,F-43m,0.0,1.471,2.767,2.101,1.148,-0.061
716734,Fe2CoSb,Fe,Co,Sb,-6.937,0.019,13.232,F-43m,0.0,1.472,2.831,1.909,1.176,-0.008
733720,Fe2CoSi,Fe,Co,Si,-7.657,-0.374,10.83,F-43m,0.0,1.237,2.637,1.367,0.996,-0.025
733726,Fe2CoSn,Fe,Co,Sn,-6.918,-0.014,13.174,F-43m,0.0,1.334,2.713,1.749,1.002,-0.082
748020,ZnFe2Co,Fe,Co,Zn,-6.23,0.013,11.75,F-43m,0.0,1.474,2.48,2.249,1.303,-0.077
733120,AlFe2Cu,Fe,Cu,Al,-6.139,-0.12,11.982,F-43m,0.0,1.04,1.874,2.355,0.016,-0.035
525931,Fe2CuAs,Fe,Cu,As,-6.096,0.15,11.428,Fm-3m,0.0,0.363,0.734,0.734,0.074,-0.052
526628,Fe2CuB,Fe,Cu,B,-6.445,0.308,9.817,Fm-3m,0.0,0.831,1.681,1.681,0.129,-0.127
696504,Fe2CuBi,Fe,Cu,Bi,-5.627,0.465,15.302,F-43m,0.0,1.252,2.705,2.254,0.025,-0.003
733845,GaFe2Cu,Fe,Cu,Ga,-5.862,-0.021,12.146,F-43m,0.0,1.097,2.431,1.991,0.024,-0.066
733124,Fe2CuGe,Fe,Cu,Ge,-6.189,0.05,12.187,F-43m,0.0,1.089,1.871,2.477,0.018,-0.034
733848,InFe2Cu,Fe,Cu,In,-5.575,0.188,13.865,F-43m,0.0,1.193,2.572,2.255,0.02,-0.069
526696,MgFe2Cu,Fe,Cu,Mg,-5.137,0.332,12.62,Fm-3m,0.0,1.163,2.375,2.375,0.053,-0.037
733851,Fe2CuPb,Fe,Cu,Pb,-5.573,0.436,14.911,F-43m,0.0,1.263,2.697,2.337,0.026,-0.027
733850,Fe2CuSb,Fe,Cu,Sb,-5.908,0.205,13.721,F-43m,0.0,1.045,2.563,1.698,-0.019,-0.026
733843,Fe2CuSi,Fe,Cu,Si,-6.539,-0.099,11.316,F-43m,0.0,0.92,2.292,1.465,-0.009,-0.028
716829,Fe2CuSn,Fe,Cu,Sn,-5.946,0.116,13.904,F-43m,0.0,1.171,2.595,2.104,0.013,-0.053
748122,ZnFe2Cu,Fe,Cu,Zn,-5.311,0.088,12.13,F-43m,0.0,1.143,2.447,2.166,0.046,-0.053
744279,AlFe2Ir,Fe,Ir,Al,-7.689,-0.385,12.793,F-43m,0.0,1.261,2.759,2.02,0.325,-0.028
744284,Fe2AsIr,Fe,Ir,As,-7.475,0.056,13.359,F-43m,0.0,1.4,2.871,2.205,0.449,0.021
744278,Fe2BIr,Fe,Ir,B,-7.894,0.143,10.988,F-43m,0.0,1.195,2.608,1.881,0.253,-0.024
744289,Fe2BiIr,Fe,Ir,Bi,-6.968,0.41,15.431,F-43m,0.0,1.457,2.986,2.349,0.465,0.009
744282,GaFe2Ir,Fe,Ir,Ga,-7.34,-0.214,13.018,F-43m,0.0,1.286,2.765,2.129,0.298,-0.056
744283,Fe2GeIr,Fe,Ir,Ge,-7.655,-0.132,13.018,F-43m,0.0,1.252,2.831,1.921,0.261,-0.031
744285,InFe2Ir,Fe,Ir,In,-6.951,0.097,13.965,F-43m,0.0,1.324,2.798,2.257,0.319,-0.059
1147014,MgFe2Ir,Fe,Ir,Mg,-6.763,-0.01,13.611,F-43m,0.0,1.432,2.722,2.606,0.493,-0.023
744288,Fe2IrPb,Fe,Ir,Pb,-6.931,0.362,15.523,F-43m,0.0,1.365,2.911,2.315,0.292,-0.042
744287,Fe2SbIr,Fe,Ir,Sb,-7.289,0.108,14.024,F-43m,0.0,1.333,2.823,2.086,0.394,-0.005
744280,Fe2SiIr,Fe,Ir,Si,-8.074,-0.35,12.266,F-43m,0.0,1.209,2.807,1.752,0.274,-0.015
744286,Fe2SnIr,Fe,Ir,Sn,-7.376,-0.03,14.327,F-43m,0.0,1.29,2.887,2.043,0.278,-0.05
1122455,ZnFe2Ir,Fe,Ir,Zn,-6.739,-0.055,13.009,F-43m,0.0,1.424,2.587,2.703,0.447,-0.034
733772,LiAlFe2,Fe,Li,Al,-5.643,-0.078,11.654,F-43m,0.0,0.865,2.189,1.486,-0.052,-0.051
716767,LiFe2As,Fe,Li,As,-5.928,-0.137,11.646,F-43m,0.0,1.002,2.606,1.401,-0.009,-0.013
733782,LiFe2Bi,Fe,Li,Bi,-5.441,0.197,14.802,F-43m,0.0,1.129,2.671,1.919,-0.016,-0.04
733775,LiGaFe2,Fe,Li,Ga,-5.451,-0.065,11.856,F-43m,0.0,0.949,2.284,1.687,-0.043,-0.102
733776,LiFe2Ge,Fe,Li,Ge,-5.91,-0.126,11.478,F-43m,0.0,0.753,2.404,0.698,-0.016,-0.061
716768,LiInFe2,Fe,Li,In,-5.194,0.114,13.827,F-43m,0.0,1.109,2.498,2.136,-0.042,-0.106
733702,LiMgFe2,Fe,Li,Mg,-4.691,0.323,11.803,F-43m,0.0,0.922,1.803,2.114,-0.071,-0.037
716771,LiFe2Pb,Fe,Li,Pb,-5.323,0.231,14.692,F-43m,0.0,1.185,2.651,2.186,-0.025,-0.064
733780,LiFe2Sb,Fe,Li,Sb,-5.712,-0.055,13.348,F-43m,0.0,1.003,2.63,1.458,-0.015,-0.037
716763,LiFe2Si,Fe,Li,Si,-6.218,-0.234,10.747,F-43m,0.0,0.753,2.323,0.783,-0.019,-0.04
716769,LiFe2Sn,Fe,Li,Sn,-5.636,-0.03,13.592,F-43m,0.0,1.071,2.533,1.884,-0.027,-0.093
749035,LiZnFe2,Fe,Li,Zn,-4.828,0.116,11.968,F-43m,0.0,1.028,2.288,2.029,-0.056,-0.078
733705,MgAlFe2,Fe,Mg,Al,-5.454,0.022,13.358,F-43m,0.0,0.977,2.24,1.918,-0.023,-0.045
526389,MgFe2As,Fe,Mg,As,-5.59,0.112,12.147,Fm-3m,0.0,-0.001,-0.002,-0.002,0.0,0.0
733715,MgFe2Bi,Fe,Mg,Bi,-5.116,0.433,16.782,F-43m,0.0,1.181,2.632,2.218,-0.015,-0.006
733708,MgGaFe2,Fe,Mg,Ga,-5.26,0.037,13.535,F-43m,0.0,1.07,2.347,2.09,-0.019,-0.08
733709,MgFe2Ge,Fe,Mg,Ge,-5.623,0.073,13.36,F-43m,0.0,0.999,2.433,1.704,-0.012,-0.049
733711,MgInFe2,Fe,Mg,In,-5.012,0.207,15.35,F-43m,0.0,1.157,2.478,2.318,-0.02,-0.078
733714,MgFe2Pb,Fe,Mg,Pb,-5.026,0.44,15.326,F-43m,0.0,1.114,2.489,2.089,-0.012,-0.037
526905,MgFe2Sb,Fe,Mg,Sb,-5.421,0.148,13.868,Fm-3m,0.0,-0.098,-0.214,-0.214,0.005,0.013
733712,MgFe2Sn,Fe,Mg,Sn,-5.366,0.152,15.242,F-43m,0.0,1.062,2.489,1.956,-0.016,-0.073
733707,MgZnFe2,Fe,Mg,Zn,-4.732,0.124,13.387,F-43m,0.0,1.077,0.0,0.0,0.0,0.0
525744,MnFe2As,Fe,Mn,As,-7.628,-0.054,11.383,Fm-3m,0.0,1.001,0.627,0.627,2.704,-0.01
527255,MnFe2B,Fe,Mn,B,-8.037,0.043,9.43,Fm-3m,0.0,0.508,-0.094,-0.094,2.152,0.008
526974,MnFe2Bi,Fe,Mn,Bi,-6.992,0.428,14.079,Fm-3m,0.0,1.456,1.525,1.525,2.847,-0.075
525371,MnGaFe2,Fe,Mn,Ga,-7.242,-0.074,11.385,Fm-3m,0.0,0.509,-0.238,-0.238,2.457,-0.012
526624,MnFe2Ge,Fe,Mn,Ge,-7.68,-0.114,11.503,Fm-3m,0.0,0.752,0.161,0.161,2.644,-0.019
716756,MnInFe2,Fe,Mn,In,-6.898,0.192,14.072,F-43m,0.0,1.996,2.462,2.408,3.183,-0.11
526126,MgMnFe2,Fe,Mn,Mg,-6.46,0.337,11.895,Fm-3m,0.0,0.254,-0.735,-0.735,2.467,-0.007
733755,MnFe2Pb,Fe,Mn,Pb,-6.914,0.423,14.872,F-43m,0.0,2.005,2.577,2.332,3.14,-0.076
526479,MnFe2Sb,Fe,Mn,Sb,-7.377,0.063,12.962,Fm-3m,0.0,1.013,0.599,0.599,2.867,-0.033
31335,MnFe2Si,Fe,Mn,Si,-7.888,-0.339,10.413,Fm-3m,0.0,-0.189,5.0,5.0,5.0,0.0
526542,MnFe2Sn,Fe,Mn,Sn,-7.283,0.106,12.944,Fm-3m,0.0,0.759,0.09,0.09,2.832,-0.036
748224,MnZnFe2,Fe,Mn,Zn,-6.639,0.088,12.218,F-43m,0.0,1.817,2.063,2.348,2.914,-0.074
733691,AlFe2Ni,Fe,Ni,Al,-6.772,-0.29,11.621,F-43m,0.0,1.177,2.593,1.772,0.444,-0.033
733696,Fe2NiAs,Fe,Ni,As,-6.717,-0.009,12.034,F-43m,0.0,1.325,2.721,2.092,0.396,0.039
733701,Fe2NiBi,Fe,Ni,Bi,-6.222,0.333,14.788,F-43m,0.0,1.393,2.843,2.323,0.367,0.01
733694,GaFe2Ni,Fe,Ni,Ga,-6.485,-0.182,11.783,F-43m,0.0,1.206,2.624,1.847,0.426,-0.067
733695,Fe2NiGe,Fe,Ni,Ge,-6.838,-0.137,11.913,F-43m,0.0,1.257,2.671,1.956,0.414,-0.025
733697,InFe2Ni,Fe,Ni,In,-6.146,0.08,13.35,F-43m,0.0,1.27,2.683,2.115,0.391,-0.075
527179,MgFe2Ni,Fe,Ni,Mg,-5.682,0.249,12.271,Fm-3m,0.0,1.335,2.408,2.408,0.663,-0.027
733700,Fe2NiPb,Fe,Ni,Pb,-6.159,0.312,14.328,F-43m,0.0,1.338,2.796,2.238,0.357,-0.036
733699,Fe2NiSb,Fe,Ni,Sb,-6.535,0.04,13.44,F-43m,0.0,1.251,2.723,2.009,0.254,-0.006
733692,Fe2SiNi,Fe,Ni,Si,-7.208,-0.306,11.042,F-43m,0.0,1.159,2.554,1.719,0.378,-0.016
733698,Fe2NiSn,Fe,Ni,Sn,-6.529,-0.005,12.789,F-43m,0.0,1.255,2.681,2.007,0.361,-0.047
748274,ZnFe2Ni,Fe,Ni,Zn,-5.883,-0.021,11.8,F-43m,0.0,1.231,2.524,2.072,0.433,-0.064
735937,AlFe2Pd,Fe,Pd,Al,-6.694,-0.309,12.973,F-43m,0.0,1.196,2.765,1.959,0.185,-0.035
735942,Fe2AsPd,Fe,Pd,As,-6.584,0.027,13.807,F-43m,0.0,1.406,2.908,2.406,0.22,0.03
735936,Fe2BPd,Fe,Pd,B,-6.841,0.276,11.189,F-43m,0.0,1.202,2.734,1.872,0.235,-0.044
735947,Fe2BiPd,Fe,Pd,Bi,-6.193,0.265,15.741,F-43m,0.0,1.394,2.912,2.448,0.163,0.006
735940,GaFe2Pd,Fe,Pd,Ga,-6.398,-0.192,13.22,F-43m,0.0,1.235,2.78,2.084,0.176,-0.071
735941,Fe2GePd,Fe,Pd,Ge,-6.703,-0.099,13.452,F-43m,0.0,1.31,2.84,2.21,0.193,-0.029
735943,InFe2Pd,Fe,Pd,In,-6.138,-0.01,14.853,F-43m,0.0,1.294,2.829,2.328,0.153,-0.075
525248,MgFe2Pd,Fe,Pd,Mg,-5.664,0.169,13.806,Fm-3m,0.0,1.383,2.693,2.693,0.312,-0.03
735946,Fe2PdPb,Fe,Pd,Pb,-6.141,0.233,15.835,F-43m,0.0,1.362,0.0,0.0,0.0,0.0
735945,Fe2SbPd,Fe,Pd,Sb,-6.455,0.023,15.089,F-43m,0.0,1.375,2.915,2.356,0.163,0.018
735938,Fe2SiPd,Fe,Pd,Si,-7.019,-0.215,12.602,F-43m,0.0,1.26,0.0,0.0,0.0,0.0
735944,Fe2SnPd,Fe,Pd,Sn,-6.513,-0.086,14.91,F-43m,0.0,1.316,2.869,2.28,0.154,-0.052
735939,ZnFe2Pd,Fe,Pd,Zn,-5.83,-0.065,13.284,F-43m,0.0,1.271,2.726,2.337,0.18,-0.062
744696,AlFe2Pt,Fe,Pt,Al,-7.043,-0.439,13.273,F-43m,0.0,1.255,2.83,2.055,0.214,-0.028
526925,Fe2AsPt,Fe,Pt,As,-6.785,0.046,13.468,Fm-3m,0.0,1.171,2.29,2.29,0.224,-0.07
744695,Fe2BPt,Fe,Pt,B,-7.133,0.205,11.048,F-43m,0.0,1.227,2.713,1.913,0.254,-0.019
744706,Fe2BiPt,Fe,Pt,Bi,-6.4,0.278,16.721,F-43m,0.0,1.465,2.998,2.576,0.23,0.012
744699,GaFe2Pt,Fe,Pt,Ga,-6.677,-0.251,12.818,F-43m,0.0,1.255,2.78,2.074,0.21,-0.049
744700,Fe2GePt,Fe,Pt,Ge,-6.946,-0.122,13.566,F-43m,0.0,1.346,2.851,2.274,0.232,-0.014
744702,InFe2Pt,Fe,Pt,In,-6.407,-0.06,15.024,F-43m,0.0,1.338,2.867,2.391,0.185,-0.061
527253,MgFe2Pt,Fe,Pt,Mg,-6.067,-0.013,13.841,Fm-3m,0.0,1.411,2.677,2.677,0.395,-0.024
744705,Fe2PtPb,Fe,Pt,Pb,-6.334,0.26,15.605,F-43m,0.0,1.378,2.912,2.426,0.187,-0.024
744704,Fe2SbPt,Fe,Pt,Sb,-6.647,0.05,15.404,F-43m,0.0,1.418,2.941,2.42,0.225,0.026
744697,Fe2SiPt,Fe,Pt,Si,-7.307,-0.283,12.749,F-43m,0.0,1.295,2.78,2.128,0.245,-0.006
744703,Fe2SnPt,Fe,Pt,Sn,-6.751,-0.104,15.233,F-43m,0.0,1.358,2.908,2.351,0.188,-0.038
1122430,ZnFe2Pt,Fe,Pt,Zn,-6.153,-0.169,13.256,F-43m,0.0,1.326,2.749,2.424,0.225,-0.05
735951,AlFe2Rh,Fe,Rh,Al,-7.304,-0.396,12.653,F-43m,0.0,1.24,2.761,1.946,0.379,-0.039
735956,Fe2AsRh,Fe,Rh,As,-7.206,-0.072,13.2,F-43m,0.0,1.451,2.934,2.229,0.552,0.037
735950,Fe2BRh,Fe,Rh,B,-7.532,0.108,10.829,F-43m,0.0,1.194,2.669,1.791,0.357,-0.052
735961,Fe2BiRh,Fe,Rh,Bi,-6.732,0.249,15.16,F-43m,0.0,1.443,2.973,2.301,0.463,0.007
735954,GaFe2Rh,Fe,Rh,Ga,-6.997,-0.267,12.87,F-43m,0.0,1.259,2.78,2.029,0.34,-0.078
735955,Fe2GeRh,Fe,Rh,Ge,-7.347,-0.22,12.839,F-43m,0.0,1.254,2.865,1.848,0.347,-0.044
735957,InFe2Rh,Fe,Rh,In,-6.649,0.002,13.895,F-43m,0.0,1.287,2.802,2.168,0.327,-0.08
527552,MgFe2Rh,Fe,Rh,Mg,-6.266,0.091,13.538,Fm-3m,0.0,1.52,2.717,2.717,0.808,-0.027
735960,Fe2RhPb,Fe,Rh,Pb,-6.66,0.238,14.658,F-43m,0.0,1.316,2.882,2.126,0.331,-0.05
735959,Fe2SbRh,Fe,Rh,Sb,-7.064,-0.063,14.502,F-43m,0.0,1.373,2.918,2.156,0.411,-0.009
735952,Fe2SiRh,Fe,Rh,Si,-7.723,-0.396,12.119,F-43m,0.0,1.223,2.845,1.711,0.375,-0.025
735958,Fe2SnRh,Fe,Rh,Sn,-7.079,-0.129,13.954,F-43m,0.0,1.273,2.883,1.95,0.339,-0.063
1122438,ZnFe2Rh,Fe,Rh,Zn,-6.383,-0.095,12.906,F-43m,0.0,1.42,2.551,2.747,0.499,-0.052
735909,AlFe2Ru,Fe,Ru,Al,-7.614,-0.223,12.633,F-43m,0.0,1.237,2.549,2.104,0.395,-0.029
735914,Fe2AsRu,Fe,Ru,As,-7.622,-0.005,12.766,F-43m,0.0,1.227,2.805,1.795,0.269,-0.001
735908,Fe2BRu,Fe,Ru,B,-7.962,0.162,10.5,F-43m,0.0,0.8,2.329,0.759,0.015,0.019
735919,Fe2BiRu,Fe,Ru,Bi,-7.043,0.421,14.622,F-43m,0.0,1.271,2.885,1.891,0.335,-0.027
735912,GaFe2Ru,Fe,Ru,Ga,-7.321,-0.109,12.891,F-43m,0.0,1.365,2.643,2.361,0.52,-0.058
735913,Fe2GeRu,Fe,Ru,Ge,-7.715,-0.105,12.238,F-43m,0.0,1.218,2.733,1.796,0.364,-0.036
735915,InFe2Ru,Fe,Ru,In,-6.959,0.176,14.525,F-43m,0.0,1.449,2.791,2.494,0.619,-0.066
525528,MgFe2Ru,Fe,Ru,Mg,-6.621,0.22,13.426,Fm-3m,0.0,1.499,2.624,2.624,0.848,-0.032
735918,Fe2RuPb,Fe,Ru,Pb,-6.988,0.393,15.097,F-43m,0.0,1.344,2.86,2.211,0.398,-0.052
735917,Fe2SbRu,Fe,Ru,Sb,-7.44,0.044,14.213,F-43m,0.0,1.244,2.895,1.793,0.321,-0.023
735910,Fe2SiRu,Fe,Ru,Si,-8.129,-0.318,11.999,F-43m,0.0,1.155,2.726,1.61,0.301,-0.02
735916,Fe2SnRu,Fe,Ru,Sn,-7.423,0.01,14.336,F-43m,0.0,1.298,2.845,2.044,0.393,-0.065
748833,ZnFe2Ru,Fe,Ru,Zn,-6.667,0.104,12.855,F-43m,0.0,1.49,2.56,2.715,0.702,-0.025
416393,Hf2AlAg,Hf,Ag,Al,-6.726,-0.106,19.107,Fm-3m,0.0,,0.0,0.0,0.0,0.0
415328,Hf2AgAs,Hf,Ag,As,-7.063,-0.217,18.909,Fm-3m,0.0,,0.0,0.0,0.0,0.0
414667,Hf2AgB,Hf,Ag,B,-7.087,0.266,16.762,Fm-3m,0.0,,0.0,0.0,0.0,0.0
415112,Hf2AgBi,Hf,Ag,Bi,-6.574,0.119,21.473,Fm-3m,0.0,,0.0,0.0,0.0,0.0
414474,Hf2GaAg,Hf,Ag,Ga,-6.615,-0.174,19.028,Fm-3m,0.0,,0.0,0.0,0.0,0.0
416619,Hf2AgGe,Hf,Ag,Ge,-7.01,-0.171,19.0,Fm-3m,0.0,,0.0,0.0,0.0,0.0