id,formula,X,Y,Z,energy,formation,volume,spacegroup,band_gap,tot_mag,X1_mag,X2_mag,Y_mag,Z_mag
562276,Ti2ZnAu,Ti,Au,Zn,-5.225,-0.243,16.579,Fm-3m,0.0,0.391,0.674,0.674,0.071,0.013
562478,Ti2AlCd,Ti,Cd,Al,-5.112,-0.101,17.201,Fm-3m,0.0,,0.0,0.0,0.0,0.0
562532,Ti2CdAs,Ti,Cd,As,-5.378,-0.141,17.105,Fm-3m,0.0,,0.0,0.0,0.0,0.0
563133,Ti2CdB,Ti,Cd,B,-5.403,0.341,14.818,Fm-3m,0.0,,0.0,0.0,0.0,0.0
562539,Ti2CdBi,Ti,Cd,Bi,-4.957,0.127,20.001,Fm-3m,0.0,0.495,0.786,0.786,0.03,0.004
561488,Ti2CdGa,Ti,Cd,Ga,-4.975,-0.143,17.035,Fm-3m,0.0,,0.0,0.0,0.0,0.0
562428,Ti2CdGe,Ti,Cd,Ge,-5.35,-0.12,17.087,Fm-3m,0.0,0.0,0.0,0.0,0.0,0.0
561607,Ti2CdIn,Ti,Cd,In,-4.774,-0.02,18.676,Fm-3m,0.0,0.001,0.002,0.002,0.0,0.0
563521,MgTi2Cd,Ti,Cd,Mg,-4.321,0.138,18.318,Fm-3m,0.0,,0.0,0.0,0.0,0.0
562289,Ti2CdPb,Ti,Cd,Pb,-4.876,0.124,19.492,Fm-3m,0.0,0.281,0.49,0.49,0.008,-0.001
562746,Ti2CdSb,Ti,Cd,Sb,-5.167,-0.063,18.866,Fm-3m,0.0,,0.0,0.0,0.0,0.0
561821,Ti2CdSi,Ti,Cd,Si,-5.553,-0.123,16.373,Fm-3m,0.0,,0.0,0.0,0.0,0.0
562882,Ti2CdSn,Ti,Cd,Sn,-5.143,-0.09,18.693,Fm-3m,0.0,0.001,0.001,0.001,0.0,0.0
563019,Ti2ZnCd,Ti,Cd,Zn,-4.421,-0.031,16.713,Fm-3m,0.0,,0.0,0.0,0.0,0.0
734379,Ti2AlCo,Ti,Co,Al,-6.864,-0.307,14.16,F-43m,0.0,0.5,0.808,1.408,-0.172,-0.012
562379,Ti2CoAs,Ti,Co,As,-7.177,-0.392,14.357,Fm-3m,0.0,0.027,0.028,0.028,0.084,0.003
561086,Ti2CoB,Ti,Co,B,-7.493,-0.202,12.145,Fm-3m,0.0,0.465,0.213,0.213,1.268,0.091
561614,Ti2CoBi,Ti,Co,Bi,-6.531,0.1,17.058,Fm-3m,0.0,0.014,0.017,0.017,0.028,0.001
562009,Ti2GaCo,Ti,Co,Ga,-6.719,-0.339,14.422,Fm-3m,0.0,,0.0,0.0,0.0,0.0
562769,Ti2CoGe,Ti,Co,Ge,-7.139,-0.362,14.368,Fm-3m,0.0,-0.008,-0.005,-0.005,-0.029,-0.001
716601,Ti2InCo,Ti,Co,In,-6.411,-0.109,15.844,F-43m,0.0,0.5,0.95,1.395,-0.355,-0.012
562596,MgTi2Co,Ti,Co,Mg,-5.96,0.047,15.192,Fm-3m,0.0,0.001,0.002,0.002,0.005,0.0
716604,Ti2CoPb,Ti,Co,Pb,-6.489,0.059,16.649,F-43m,0.0,0.75,0.917,1.643,0.404,-0.014
563390,Ti2CoSb,Ti,Co,Sb,-6.814,-0.163,16.044,Fm-3m,0.0,-0.004,-0.007,-0.007,-0.005,0.0
562803,Ti2CoSi,Ti,Co,Si,-7.391,-0.413,13.948,Fm-3m,0.0,,0.0,0.0,0.0,0.0
716602,Ti2CoSn,Ti,Co,Sn,-6.837,-0.237,15.882,F-43m,0.0,0.753,0.916,1.683,0.381,-0.004
561799,Ti2AlCu,Ti,Cu,Al,-5.929,-0.215,15.168,Fm-3m,0.0,,0.0,0.0,0.0,0.0
561713,Ti2CuAs,Ti,Cu,As,-6.306,-0.365,14.857,Fm-3m,0.0,,0.0,0.0,0.0,0.0
562399,Ti2CuB,Ti,Cu,B,-6.536,-0.088,12.51,Fm-3m,0.106,,0.0,0.0,0.0,0.0
562368,Ti2CuBi,Ti,Cu,Bi,-5.726,0.062,17.804,Fm-3m,0.0,-0.0,0.0,0.0,0.0,0.0
562665,Ti2GaCu,Ti,Cu,Ga,-5.841,-0.305,14.973,Fm-3m,0.0,,0.0,0.0,0.0,0.0
561623,Ti2CuGe,Ti,Cu,Ge,-6.276,-0.342,14.928,Fm-3m,0.0,,0.0,0.0,0.0,0.0
563232,Ti2InCu,Ti,Cu,In,-5.52,-0.062,16.712,Fm-3m,0.0,,0.0,0.0,0.0,0.0
562469,MgTi2Cu,Ti,Cu,Mg,-4.998,0.166,16.06,Fm-3m,0.0,0.202,0.324,0.324,0.043,0.008
562527,Ti2CuPb,Ti,Cu,Pb,-5.637,0.067,17.389,Fm-3m,0.0,,0.0,0.0,0.0,0.0
561386,Ti2CuSb,Ti,Cu,Sb,-5.988,-0.18,16.776,Fm-3m,0.0,0.0,0.0,0.0,0.0,0.0
562834,Ti2CuSi,Ti,Cu,Si,-6.515,-0.381,14.449,Fm-3m,0.0,,0.0,0.0,0.0,0.0
562563,Ti2CuSn,Ti,Cu,Sn,-5.943,-0.187,16.754,Fm-3m,0.0,,0.0,0.0,0.0,0.0
562866,Ti2ZnCu,Ti,Cu,Zn,-5.206,-0.111,14.723,Fm-3m,0.0,0.253,0.427,0.427,0.062,0.012
716643,Ti2AlFe,Ti,Fe,Al,-7.133,-0.271,14.169,F-43m,0.0,0.249,0.786,1.127,-0.887,-0.005
562948,Ti2FeAs,Ti,Fe,As,-7.394,-0.305,14.259,Fm-3m,0.0,-0.0,0.001,0.001,-0.004,0.0
561743,Ti2FeB,Ti,Fe,B,-7.779,-0.184,12.146,Fm-3m,0.0,0.246,-0.309,-0.309,1.426,0.091
716653,Ti2FeBi,Ti,Fe,Bi,-6.813,0.123,16.603,F-43m,0.0,0.752,0.46,1.578,0.892,-0.004
562409,Ti2GaFe,Ti,Fe,Ga,-7.043,-0.36,14.54,Fm-3m,0.0,0.251,-0.334,-0.334,1.638,0.031
734450,Ti2FeGe,Ti,Fe,Ge,-7.393,-0.312,13.826,F-43m,0.0,0.5,0.784,1.438,-0.155,-0.005
562748,Ti2InFe,Ti,Fe,In,-6.685,-0.079,15.925,Fm-3m,0.0,0.255,-0.433,-0.433,1.897,0.028
561649,MgTi2Fe,Ti,Fe,Mg,-6.272,0.04,15.012,Fm-3m,0.0,,0.0,0.0,0.0,0.0
716652,Ti2FePb,Ti,Fe,Pb,-6.747,0.105,16.424,F-43m,0.0,0.5,0.966,1.539,-0.574,-0.006
561360,Ti2FeSb,Ti,Fe,Sb,-7.178,-0.223,16.04,Fm-3m,0.0,0.45,-0.228,-0.228,2.199,0.043
562293,Ti2FeSi,Ti,Fe,Si,-7.745,-0.463,14.018,Fm-3m,0.0,0.494,-0.051,-0.051,1.974,0.051
562736,Ti2FeSn,Ti,Fe,Sn,-7.146,-0.241,16.351,Fm-3m,0.0,0.5,-0.144,-0.144,2.224,0.045
561407,Ti2ZnFe,Ti,Fe,Zn,-6.475,-0.232,14.003,Fm-3m,0.0,0.043,-0.397,-0.397,1.009,-0.014
744265,Ti2AlIr,Ti,Ir,Al,-7.7,-0.701,15.201,F-43m,0.0,0.499,0.628,1.418,-0.071,-0.011
563416,Ti2AsIr,Ti,Ir,As,-7.744,-0.518,15.589,Fm-3m,0.0,0.052,0.082,0.082,0.012,0.002
744264,Ti2BIr,Ti,Ir,B,-7.957,-0.225,12.985,F-43m,0.0,0.49,0.705,1.398,-0.019,-0.026
563236,Ti2BiIr,Ti,Ir,Bi,-7.206,-0.134,17.976,Fm-3m,0.0,0.507,0.858,0.858,0.124,0.015
744269,Ti2GeIr,Ti,Ir,Ge,-7.761,-0.542,15.18,F-43m,0.0,0.694,0.826,1.775,0.117,0.006
744271,Ti2InIr,Ti,Ir,In,-7.17,-0.427,16.65,F-43m,0.0,0.5,0.661,1.385,-0.089,-0.011
562351,MgTi2Ir,Ti,Ir,Mg,-6.822,-0.374,15.956,Fm-3m,0.0,,0.0,0.0,0.0,0.0
744274,Ti2IrPb,Ti,Ir,Pb,-7.149,-0.16,17.513,F-43m,0.0,0.719,0.864,1.769,0.097,0.0
561665,Ti2SbIr,Ti,Ir,Sb,-7.433,-0.341,17.038,Fm-3m,0.0,0.309,0.493,0.493,0.099,0.008
744266,Ti2SiIr,Ti,Ir,Si,-8.074,-0.655,14.584,F-43m,0.0,0.678,0.788,1.756,0.111,-0.012
744272,Ti2SnIr,Ti,Ir,Sn,-7.531,-0.49,16.812,F-43m,0.0,0.723,0.851,1.801,0.106,0.011
562118,Ti2ZnIr,Ti,Ir,Zn,-6.902,-0.523,15.23,Fm-3m,0.0,,0.0,0.0,0.0,0.0
563421,LiTi2Al,Ti,Li,Al,-5.335,-0.075,15.822,Fm-3m,0.0,,0.0,0.0,0.0,0.0
561530,LiTi2As,Ti,Li,As,-5.799,-0.313,14.802,Fm-3m,0.0,,0.0,0.0,0.0,0.0
561593,LiTi2B,Ti,Li,B,-5.997,-0.005,12.058,Fm-3m,0.0,,0.0,0.0,0.0,0.0
716641,LiTi2Bi,Ti,Li,Bi,-5.253,0.079,19.1,F-43m,0.0,0.907,1.693,1.526,0.014,-0.047
561739,LiTi2Ga,Ti,Li,Ga,-5.255,-0.174,15.325,Fm-3m,0.0,,0.0,0.0,0.0,0.0
562155,LiTi2Ge,Ti,Li,Ge,-5.76,-0.281,15.074,Fm-3m,0.0,,0.0,0.0,0.0,0.0
734438,LiTi2In,Ti,Li,In,-4.993,0.01,18.093,F-43m,0.0,0.956,1.861,1.669,0.005,-0.043
734362,LiMgTi2,Ti,Li,Mg,-4.399,0.31,18.353,F-43m,0.0,0.802,1.492,1.5,-0.014,-0.014
734441,LiTi2Pb,Ti,Li,Pb,-5.163,0.086,18.844,F-43m,0.0,0.928,1.811,1.559,0.009,-0.052
562219,LiTi2Sb,Ti,Li,Sb,-5.518,-0.165,17.2,Fm-3m,0.0,,0.0,0.0,0.0,0.0
563386,LiTi2Si,Ti,Li,Si,-6.002,-0.322,14.497,Fm-3m,0.0,,0.0,0.0,0.0,0.0
561584,LiTi2Sn,Ti,Li,Sn,-5.451,-0.149,17.46,Fm-3m,0.0,,0.0,0.0,0.0,0.0
562486,LiTi2Zn,Ti,Li,Zn,-4.564,0.076,15.274,Fm-3m,0.0,0.0,0.0,0.0,0.0,0.0
563046,MgTi2Al,Ti,Mg,Al,-5.258,-0.087,17.159,Fm-3m,0.0,,0.0,0.0,0.0,0.0
562165,MgTi2As,Ti,Mg,As,-5.492,-0.094,16.827,Fm-3m,0.0,0.0,0.0,0.0,0.0,0.0
561393,MgTi2B,Ti,Mg,B,-5.599,0.306,13.884,Fm-3m,0.0,,0.0,0.0,0.0,0.0
562743,MgTi2Bi,Ti,Mg,Bi,-5.084,0.16,19.928,Fm-3m,0.0,0.013,0.016,0.016,0.0,-0.001
563359,MgTi2Ga,Ti,Mg,Ga,-5.115,-0.122,16.813,Fm-3m,0.0,,0.0,0.0,0.0,0.0
561045,MgTi2Ge,Ti,Mg,Ge,-5.502,-0.112,16.58,Fm-3m,0.0,0.0,0.0,0.0,0.0,0.0
561117,MgTi2Pb,Ti,Mg,Pb,-5.003,0.158,19.28,Fm-3m,0.0,0.002,0.003,0.003,0.0,0.0
562680,MgTi2Sb,Ti,Mg,Sb,-5.306,-0.042,18.779,Fm-3m,0.0,0.001,0.0,0.0,0.0,0.0
561092,MgTi2Si,Ti,Mg,Si,-5.737,-0.147,15.941,Fm-3m,0.0,,0.0,0.0,0.0,0.0
562974,MgTi2Sn,Ti,Mg,Sn,-5.298,-0.085,18.572,Fm-3m,0.0,0.0,0.0,0.0,0.0,0.0
562859,MgTi2Zn,Ti,Mg,Zn,-4.518,0.033,16.777,Fm-3m,0.0,,0.0,0.0,0.0,0.0
561691,Ti2MnAl,Ti,Mn,Al,-7.36,-0.318,14.388,Fm-3m,0.0,,0.0,0.0,0.0,0.0
561523,Ti2MnAs,Ti,Mn,As,-7.631,-0.362,14.568,Fm-3m,0.0,0.098,-0.808,-0.808,1.953,0.051
563037,Ti2MnB,Ti,Mn,B,-7.956,-0.18,12.019,Fm-3m,0.0,0.0,-0.001,-0.001,0.002,0.0
716629,Ti2MnBi,Ti,Mn,Bi,-6.984,0.131,16.466,F-43m,0.0,0.499,0.715,1.526,-0.321,0.002
561150,Ti2MnGa,Ti,Mn,Ga,-7.22,-0.356,14.341,Fm-3m,0.0,0.002,-0.004,-0.004,0.02,0.0
562395,Ti2MnGe,Ti,Mn,Ge,-7.624,-0.362,14.499,Fm-3m,0.0,0.184,-0.436,-0.436,1.539,0.026
716625,Ti2MnIn,Ti,Mn,In,-6.876,-0.091,15.784,F-43m,0.0,0.001,-1.322,-1.425,2.679,-0.013
561900,MgTi2Mn,Ti,Mn,Mg,-6.432,0.06,15.183,Fm-3m,0.0,0.0,0.0,0.0,0.0,0.0
561490,Ti2MnPb,Ti,Mn,Pb,-6.954,0.078,17.292,Fm-3m,0.0,0.219,-0.742,-0.742,2.34,0.036
716627,Ti2MnSb,Ti,Mn,Sb,-7.311,-0.176,15.692,F-43m,0.0,0.497,0.656,1.477,-0.189,-0.003
561383,Ti2MnSi,Ti,Mn,Si,-7.889,-0.427,13.826,Fm-3m,0.0,0.031,-0.31,-0.31,0.752,0.011
562316,Ti2MnSn,Ti,Mn,Sn,-7.277,-0.192,16.47,Fm-3m,0.0,0.197,-0.632,-0.632,2.023,0.024
562732,Ti2MnZn,Ti,Mn,Zn,-6.634,-0.212,14.082,Fm-3m,0.0,,0.0,0.0,0.0,0.0
734351,Ti2AlNi,Ti,Ni,Al,-6.478,-0.301,14.735,F-43m,0.0,0.75,1.135,1.721,0.154,-0.013
561130,Ti2NiAs,Ti,Ni,As,-6.885,-0.481,14.475,Fm-3m,0.0,,0.0,0.0,0.0,0.0
562429,Ti2NiB,Ti,Ni,B,-7.111,-0.201,12.334,Fm-3m,0.0,0.274,0.349,0.349,0.362,0.002
563257,Ti2NiBi,Ti,Ni,Bi,-6.264,-0.014,17.326,Fm-3m,0.0,0.0,0.0,0.0,0.0,0.0
562574,Ti2GaNi,Ti,Ni,Ga,-6.377,-0.379,14.561,Fm-3m,0.0,0.275,0.323,0.323,0.425,0.025
561505,Ti2NiGe,Ti,Ni,Ge,-6.831,-0.435,14.639,Fm-3m,0.0,0.035,0.046,0.046,0.043,0.0
734357,Ti2InNi,Ti,Ni,In,-6.064,-0.144,16.34,F-43m,0.0,0.75,1.204,1.627,0.142,-0.017
562961,MgTi2Ni,Ti,Ni,Mg,-5.583,0.043,15.514,Fm-3m,0.0,0.493,0.657,0.657,0.504,0.016
563432,Ti2NiPb,Ti,Ni,Pb,-6.161,0.005,17.019,Fm-3m,0.0,-0.0,0.0,0.0,0.0,0.0
563402,Ti2NiSb,Ti,Ni,Sb,-6.536,-0.266,16.325,Fm-3m,0.0,0.0,0.0,0.0,0.0,0.0
563308,Ti2SiNi,Ti,Ni,Si,-7.069,-0.473,14.11,Fm-3m,0.0,-0.001,-0.002,-0.002,-0.002,0.0
561526,Ti2ZnNi,Ti,Ni,Zn,-5.796,-0.239,14.391,Fm-3m,0.0,0.469,0.623,0.623,0.501,0.042
736497,Ti2AlPd,Ti,Pd,Al,-6.554,-0.475,15.749,F-43m,0.0,0.75,1.121,1.743,0.088,-0.018
562391,Ti2AsPd,Ti,Pd,As,-6.879,-0.573,15.662,Fm-3m,0.0,0.005,0.009,0.009,0.0,-0.001
562328,Ti2BPd,Ti,Pd,B,-6.913,-0.1,13.71,Fm-3m,0.0,0.3,0.517,0.517,0.128,-0.015
561499,Ti2BiPd,Ti,Pd,Bi,-6.367,-0.214,18.183,Fm-3m,0.0,0.008,0.014,0.014,0.0,0.0
736500,Ti2GaPd,Ti,Pd,Ga,-6.363,-0.462,15.772,F-43m,0.0,0.749,1.199,1.702,0.091,-0.022
563115,Ti2GePd,Ti,Pd,Ge,-6.809,-0.509,15.866,Fm-3m,0.0,0.159,0.268,0.268,0.062,-0.004
736503,Ti2InPd,Ti,Pd,In,-6.16,-0.337,17.156,F-43m,0.0,0.75,1.196,1.655,0.083,-0.023
561031,MgTi2Pd,Ti,Pd,Mg,-5.624,-0.095,16.825,Fm-3m,0.0,0.49,0.772,0.772,0.203,0.01
561388,Ti2PdPb,Ti,Pd,Pb,-6.244,-0.174,17.975,Fm-3m,0.0,0.508,0.88,0.88,0.091,-0.026
561149,Ti2SbPd,Ti,Pd,Sb,-6.601,-0.429,17.33,Fm-3m,0.0,0.001,0.002,0.002,0.0,0.0
562386,Ti2SiPd,Ti,Pd,Si,-7.014,-0.515,15.284,Fm-3m,0.0,0.406,0.691,0.691,0.129,-0.02
561877,Ti2SnPd,Ti,Pd,Sn,-6.525,-0.403,17.428,Fm-3m,0.0,0.472,0.812,0.812,0.106,-0.021
744682,Ti2AlPt,Ti,Pt,Al,-6.989,-0.689,15.646,F-43m,0.0,0.75,1.002,1.832,0.078,-0.01
562702,Ti2AsPt,Ti,Pt,As,-7.17,-0.644,15.886,Fm-3m,0.0,0.219,0.377,0.377,0.038,-0.001
563005,Ti2BPt,Ti,Pt,B,-7.225,-0.193,13.939,Fm-3m,0.0,0.003,0.005,0.005,0.001,0.0
563511,Ti2BiPt,Ti,Pt,Bi,-6.671,-0.299,18.301,Fm-3m,0.0,0.54,0.934,0.934,0.072,-0.012
744685,Ti2GaPt,Ti,Pt,Ga,-6.743,-0.622,15.425,F-43m,0.0,0.75,1.07,1.809,0.089,-0.001
561778,Ti2GePt,Ti,Pt,Ge,-7.11,-0.591,16.061,Fm-3m,0.0,0.492,0.839,0.839,0.139,0.002
744688,Ti2InPt,Ti,Pt,In,-6.516,-0.473,17.161,F-43m,0.0,0.75,1.073,1.752,0.076,-0.008
563034,MgTi2Pt,Ti,Pt,Mg,-6.085,-0.336,16.478,Fm-3m,0.0,0.007,0.012,0.012,0.002,0.0
561331,Ti2PtPb,Ti,Pt,Pb,-6.552,-0.264,17.996,Fm-3m,0.0,0.57,0.965,0.965,0.143,-0.002
561983,Ti2SbPt,Ti,Pt,Sb,-6.881,-0.489,17.44,Fm-3m,0.0,0.458,0.788,0.788,0.076,-0.007
562896,Ti2SiPt,Ti,Pt,Si,-7.311,-0.592,15.525,Fm-3m,0.0,0.023,0.043,0.043,0.007,0.0
562575,Ti2SnPt,Ti,Pt,Sn,-6.828,-0.487,17.502,Fm-3m,0.0,0.58,0.972,0.972,0.163,0.007
736511,Ti2AlRh,Ti,Rh,Al,-7.212,-0.609,15.255,F-43m,0.0,0.5,0.696,1.371,-0.064,-0.015
563220,Ti2AsRh,Ti,Rh,As,-7.411,-0.582,15.346,Fm-3m,0.0,0.046,0.074,0.074,0.011,-0.001
561728,Ti2BRh,Ti,Rh,B,-7.539,-0.203,13.299,Fm-3m,0.0,,0.0,0.0,0.0,0.0
562955,Ti2BiRh,Ti,Rh,Bi,-6.854,-0.178,17.847,Fm-3m,0.0,0.041,0.079,0.079,0.016,0.001
736515,Ti2GeRh,Ti,Rh,Ge,-7.382,-0.56,14.989,F-43m,0.0,0.734,0.991,1.787,0.141,-0.009
736517,Ti2InRh,Ti,Rh,In,-6.756,-0.409,16.653,F-43m,0.0,0.5,0.75,1.323,-0.087,-0.021
563332,MgTi2Rh,Ti,Rh,Mg,-6.28,-0.228,16.11,Fm-3m,0.0,,0.0,0.0,0.0,0.0
736520,Ti2RhPb,Ti,Rh,Pb,-6.819,-0.227,17.486,F-43m,0.0,0.75,1.026,1.735,0.125,-0.017
561447,Ti2SbRh,Ti,Rh,Sb,-7.105,-0.409,16.985,Fm-3m,0.0,0.28,0.451,0.451,0.098,-0.002
736512,Ti2SiRh,Ti,Rh,Si,-7.661,-0.638,14.617,F-43m,0.0,0.741,0.977,1.809,0.146,-0.022
736518,Ti2SnRh,Ti,Rh,Sn,-7.165,-0.52,16.843,F-43m,0.0,0.75,1.004,1.767,0.128,-0.008
562199,Ti2ZnRh,Ti,Rh,Zn,-6.419,-0.436,15.217,Fm-3m,0.0,,0.0,0.0,0.0,0.0
736469,Ti2AlRu,Ti,Ru,Al,-7.588,-0.502,15.118,F-43m,0.0,0.251,0.326,0.829,-0.138,-0.011
561552,Ti2AsRu,Ti,Ru,As,-7.746,-0.434,15.161,Fm-3m,0.0,0.0,0.0,0.0,0.0,0.0
562287,Ti2BRu,Ti,Ru,B,-7.994,-0.175,13.034,Fm-3m,0.0,,0.0,0.0,0.0,0.0
736479,Ti2BiRu,Ti,Ru,Bi,-7.247,-0.088,17.356,F-43m,0.0,0.705,0.747,1.748,0.17,0.001
561522,Ti2GaRu,Ti,Ru,Ga,-7.393,-0.486,15.171,Fm-3m,0.0,,0.0,0.0,0.0,0.0
736473,Ti2GeRu,Ti,Ru,Ge,-7.821,-0.516,14.919,F-43m,0.0,0.5,0.673,1.417,-0.079,-0.015
736475,Ti2InRu,Ti,Ru,In,-7.091,-0.261,16.534,F-43m,0.0,0.25,0.38,0.812,-0.184,-0.017
561308,MgTi2Ru,Ti,Ru,Mg,-6.748,-0.213,15.901,Fm-3m,0.0,,0.0,0.0,0.0,0.0
736478,Ti2RuPb,Ti,Ru,Pb,-7.195,-0.119,17.203,F-43m,0.0,0.5,0.669,1.403,-0.137,-0.017
736477,Ti2SbRu,Ti,Ru,Sb,-7.556,-0.377,16.537,F-43m,0.0,0.683,0.712,1.73,0.164,-0.005
736470,Ti2SiRu,Ti,Ru,Si,-8.117,-0.611,14.412,F-43m,0.0,0.5,0.658,1.413,-0.064,-0.021
736476,Ti2SnRu,Ti,Ru,Sn,-7.56,-0.432,16.59,F-43m,0.0,0.5,0.659,1.412,-0.122,-0.014
562023,Ti2ZnRu,Ti,Ru,Zn,-6.872,-0.406,14.967,Fm-3m,0.0,,0.0,0.0,0.0,0.0
736707,AlV2Ag,V,Ag,Al,-5.843,0.269,14.866,F-43m,0.0,0.014,0.007,0.048,0.002,0.0
392317,V2AgAs,V,Ag,As,-6.116,0.223,14.669,Fm-3m,0.0,0.173,0.327,0.327,0.003,-0.003
391656,V2AgB,V,Ag,B,-6.215,0.63,12.712,Fm-3m,0.0,,0.0,0.0,0.0,0.0
392098,V2AgBi,V,Ag,Bi,-5.662,0.524,18.394,Fm-3m,0.0,1.477,2.683,2.683,0.076,-0.074
391466,V2GaAg,V,Ag,Ga,-5.646,0.288,14.936,Fm-3m,0.0,0.017,0.034,0.034,0.0,-0.001
393605,V2AgGe,V,Ag,Ge,-6.101,0.23,14.761,Fm-3m,0.0,0.0,0.0,0.0,0.0,0.0
736713,V2InAg,V,Ag,In,-5.391,0.465,17.08,F-43m,0.0,1.385,2.568,2.585,0.084,-0.052
391798,MgV2Ag,V,Ag,Mg,-4.893,0.669,15.817,Fm-3m,0.0,1.157,2.097,2.097,0.053,0.006
392860,V2AgPb,V,Ag,Pb,-5.496,0.606,16.898,Fm-3m,0.0,0.005,0.008,0.008,0.0,-0.001
393212,V2AgSb,V,Ag,Sb,-5.884,0.321,16.489,Fm-3m,0.0,0.603,1.13,1.13,0.016,-0.025
392915,V2SiAg,V,Ag,Si,-6.359,0.173,14.106,Fm-3m,0.0,0.0,0.0,0.0,0.0,0.0
392586,V2AgSn,V,Ag,Sn,-5.817,0.338,16.25,Fm-3m,0.0,-0.001,-0.001,-0.001,0.0,0.0
1122868,V2ZnAg,V,Ag,Zn,-5.11,0.383,15.476,F-43m,0.0,1.249,2.395,2.31,0.111,-0.016
743876,AlV2Au,V,Au,Al,-6.217,0.007,15.041,F-43m,0.0,-0.002,1.428,-1.407,0.056,-0.014
391473,V2AsAu,V,Au,As,-6.421,0.029,14.835,Fm-3m,0.0,-0.0,0.0,0.0,0.0,0.0
393515,V2BAu,V,Au,B,-6.464,0.493,13.067,Fm-3m,0.0,,0.0,0.0,0.0,0.0
393439,V2BiAu,V,Au,Bi,-5.906,0.391,17.216,Fm-3m,0.0,0.398,0.745,0.747,-0.006,-0.022
392032,V2GaAu,V,Au,Ga,-5.942,0.104,15.073,Fm-3m,0.0,0.019,0.046,0.046,0.001,0.0
391974,V2GeAu,V,Au,Ge,-6.384,0.059,14.964,Fm-3m,0.0,0.016,0.02,0.02,-0.002,-0.002
391614,V2InAu,V,Au,In,-5.677,0.29,16.324,Fm-3m,0.0,0.939,1.773,1.773,0.016,-0.038
1142180,MgV2Au,V,Au,Mg,-5.465,0.208,16.361,F-43m,0.0,1.251,2.5,2.13,0.122,-0.017
393431,V2PbAu,V,Au,Pb,-5.793,0.421,16.879,Fm-3m,0.0,0.742,1.419,1.419,-0.011,-0.034
392610,V2SbAu,V,Au,Sb,-6.158,0.159,16.339,Fm-3m,0.0,0.001,0.002,0.002,0.0,0.0
393163,V2SiAu,V,Au,Si,-6.631,0.012,14.458,Fm-3m,0.0,0.0,0.0,0.0,0.0,0.0
392705,V2SnAu,V,Au,Sn,-6.105,0.161,16.343,Fm-3m,0.0,-0.0,0.0,0.0,0.0,0.0
1122873,V2ZnAu,V,Au,Zn,-5.418,0.186,15.45,F-43m,0.0,1.25,2.238,2.453,0.134,-0.014
736721,AlV2Cd,V,Cd,Al,-5.327,0.305,15.487,F-43m,0.0,0.069,1.457,-1.172,0.02,-0.004
392839,V2CdAs,V,Cd,As,-5.53,0.329,15.538,Fm-3m,0.0,0.442,0.83,0.83,0.031,-0.018
393435,V2CdB,V,Cd,B,-5.619,0.746,13.205,Fm-3m,0.0,-0.0,0.0,0.0,0.0,0.0
392846,V2CdBi,V,Cd,Bi,-5.172,0.533,19.473,Fm-3m,0.0,1.537,2.759,2.759,0.041,-0.055
391794,V2CdGa,V,Cd,Ga,-5.127,0.327,15.333,Fm-3m,0.0,-0.0,0.0,0.0,0.0,0.0
392736,V2CdGe,V,Cd,Ge,-5.522,0.329,15.665,Fm-3m,0.0,0.625,1.162,1.162,0.031,-0.015
391912,V2CdIn,V,Cd,In,-4.914,0.462,17.834,Fm-3m,0.0,1.189,2.238,2.238,0.0,-0.062
393823,MgV2Cd,V,Cd,Mg,-4.436,0.646,16.605,Fm-3m,0.0,0.966,1.758,1.758,-0.038,-0.004
392594,V2CdPb,V,Cd,Pb,-5.059,0.563,18.997,Fm-3m,0.0,1.442,2.638,2.638,0.03,-0.062
393052,V2CdSb,V,Cd,Sb,-5.351,0.374,17.784,Fm-3m,0.0,1.176,2.139,2.139,0.041,-0.028
392123,V2CdSi,V,Cd,Si,-5.769,0.283,14.793,Fm-3m,0.0,0.357,0.672,0.672,0.02,-0.014
393187,V2CdSn,V,Cd,Sn,-5.325,0.349,17.73,Fm-3m,0.0,1.107,2.063,2.063,0.01,-0.051
748582,V2ZnCd,V,Cd,Zn,-4.555,0.457,16.007,F-43m,0.0,0.983,1.946,1.771,0.008,-0.016
716857,AlV2Co,V,Co,Al,-7.355,-0.176,12.756,F-43m,0.0,0.498,-0.176,1.617,0.528,-0.003
392688,V2CoAs,V,Co,As,-7.484,-0.078,12.797,Fm-3m,0.0,0.004,0.004,0.004,-0.001,0.0
734543,V2CoB,V,Co,B,-7.845,0.067,10.544,F-43m,0.0,0.485,0.099,1.417,0.503,-0.029
716867,V2CoBi,V,Co,Bi,-6.837,0.416,15.156,F-43m,0.0,0.01,0.824,-1.038,0.318,-0.013
716860,V2GaCo,V,Co,Ga,-7.127,-0.126,12.779,F-43m,0.0,0.492,-0.162,1.572,0.558,0.005
716861,V2CoGe,V,Co,Ge,-7.528,-0.129,12.64,F-43m,0.0,0.245,-0.247,0.849,0.368,0.004
716863,V2InCo,V,Co,In,-6.747,0.176,14.445,F-43m,0.0,0.503,-0.38,1.705,0.642,0.006
392901,MgV2Co,V,Co,Mg,-6.232,0.397,13.704,Fm-3m,0.0,0.759,0.88,0.88,1.152,0.013
734553,V2CoPb,V,Co,Pb,-6.766,0.403,15.089,F-43m,0.0,0.25,-0.621,1.225,0.363,0.006
716865,V2CoSb,V,Co,Sb,-7.209,0.064,14.183,F-43m,0.0,0.033,0.118,-0.141,0.105,-0.002
734545,V2CoSi,V,Co,Si,-7.894,-0.295,11.985,F-43m,0.0,0.25,-0.169,0.782,0.377,-0.005
716864,V2CoSn,V,Co,Sn,-7.174,0.048,14.322,F-43m,0.0,0.253,-0.485,1.083,0.388,0.013
1122867,V2ZnCo,V,Co,Zn,-6.547,0.012,12.71,F-43m,0.0,0.722,0.265,1.974,0.642,0.018
716953,AlV2Cu,V,Cu,Al,-6.221,0.115,13.518,F-43m,0.0,0.16,1.3,-0.73,0.064,-0.015
392017,V2CuAs,V,Cu,As,-6.542,0.021,13.253,Fm-3m,0.0,0.246,0.452,0.452,0.017,-0.001
392676,V2CuBi,V,Cu,Bi,-5.89,0.519,16.291,Fm-3m,0.0,0.586,1.091,1.091,0.012,-0.016
392972,V2GaCu,V,Cu,Ga,-6.064,0.094,13.354,Fm-3m,0.0,0.064,0.123,0.123,-0.002,-0.003
391930,V2CuGe,V,Cu,Ge,-6.526,0.03,13.327,Fm-3m,0.0,0.006,0.008,0.008,-0.001,-0.001
716959,V2InCu,V,Cu,In,-5.708,0.371,15.109,F-43m,0.0,0.036,0.073,0.051,0.007,-0.001
392775,MgV2Cu,V,Cu,Mg,-5.224,0.561,14.24,Fm-3m,0.0,0.005,0.008,0.008,0.0,0.0
734676,V2CuPb,V,Cu,Pb,-5.789,0.536,16.222,F-43m,0.0,0.058,1.634,-1.48,0.071,-0.005
391691,V2CuSb,V,Cu,Sb,-6.201,0.228,15.048,Fm-3m,0.0,0.334,0.629,0.629,0.01,-0.01
393140,V2CuSi,V,Cu,Si,-6.832,-0.076,12.699,Fm-3m,0.0,0.0,0.0,0.0,0.0,0.0
716960,V2CuSn,V,Cu,Sn,-6.148,0.23,15.235,F-43m,0.0,0.075,1.283,-1.05,0.07,-0.012
393173,V2ZnCu,V,Cu,Zn,-5.445,0.271,13.112,Fm-3m,0.0,0.001,0.003,0.003,0.0,0.0
716905,AlV2Fe,V,Fe,Al,-7.675,-0.191,12.855,F-43m,0.0,0.729,-0.162,1.929,1.109,-0.015
393250,V2FeAs,V,Fe,As,-7.852,-0.141,12.933,Fm-3m,0.0,0.389,-0.356,-0.356,2.172,0.057
734610,V2FeB,V,Fe,B,-8.2,0.017,10.544,F-43m,0.0,0.588,0.069,1.601,0.778,-0.037
734621,V2FeBi,V,Fe,Bi,-7.131,0.426,15.067,F-43m,0.0,0.247,-0.701,0.988,0.706,0.0
716908,V2GaFe,V,Fe,Ga,-7.451,-0.145,12.827,F-43m,0.0,0.714,-0.187,1.864,1.166,-0.01
716909,V2FeGe,V,Fe,Ge,-7.869,-0.165,12.666,F-43m,0.0,0.493,-0.424,1.474,0.928,-0.009
716911,V2InFe,V,Fe,In,-7.055,0.173,14.572,F-43m,0.0,0.723,-0.552,1.897,1.52,-0.011
391956,MgV2Fe,V,Fe,Mg,-6.522,0.411,13.418,Fm-3m,0.0,0.403,0.371,0.371,0.826,-0.002
734620,V2FePb,V,Fe,Pb,-7.069,0.404,15.118,F-43m,0.0,0.495,-0.819,1.604,1.183,-0.009
716913,V2FeSb,V,Fe,Sb,-7.524,0.053,14.092,F-43m,0.0,0.249,-0.522,0.851,0.666,-0.001
734612,V2FeSi,V,Fe,Si,-8.244,-0.341,12.019,F-43m,0.0,0.498,-0.317,1.436,0.866,-0.018
716912,V2FeSn,V,Fe,Sn,-7.491,0.035,14.385,F-43m,0.0,0.497,-0.686,1.59,1.072,-0.003
1122858,V2ZnFe,V,Fe,Zn,-6.801,0.063,12.654,F-43m,0.0,0.5,-0.084,1.472,0.611,0.004
744293,AlV2Ir,V,Ir,Al,-8.093,-0.472,13.875,F-43m,0.0,0.478,-0.299,1.916,0.185,0.001
744298,V2AsIr,V,Ir,As,-7.949,-0.102,13.797,F-43m,0.0,0.005,0.163,-0.145,-0.013,0.002
744292,V2BIr,V,Ir,B,-8.394,-0.04,11.745,F-43m,0.0,0.121,-0.079,0.497,0.044,-0.007
744303,V2BiIr,V,Ir,Bi,-7.377,0.317,16.593,F-43m,0.0,0.0,1.535,-1.498,-0.051,0.004
744296,V2GaIr,V,Ir,Ga,-7.785,-0.343,13.722,F-43m,0.0,0.456,-0.264,1.832,0.184,0.017
744297,V2GeIr,V,Ir,Ge,-8.103,-0.262,13.798,F-43m,0.0,0.136,-0.189,0.666,0.071,0.005
744299,V2InIr,V,Ir,In,-7.414,-0.05,15.502,F-43m,0.0,0.46,-0.466,2.014,0.174,0.023
1147427,MgV2Ir,V,Ir,Mg,-7.202,-0.133,14.547,F-43m,0.0,0.699,2.342,0.098,0.171,0.004