id,formula,X,Y,Z,energy,formation,volume,spacegroup,band_gap,tot_mag,X1_mag,X2_mag,Y_mag,Z_mag
528301,MnNi2As,Ni,Mn,As,-6.326,-0.123,12.094,Fm-3m,0.0,1.024,0.23,0.23,3.495,0.005
715820,MnNi2B,Ni,Mn,B,-6.579,0.131,9.829,F-43m,0.0,0.652,0.268,0.109,2.282,-0.071
529537,MnNi2Bi,Ni,Mn,Bi,-5.927,0.122,14.843,Fm-3m,0.0,1.062,0.209,0.209,3.681,-0.011
647269,MnNi2Ge,Ni,Mn,Ge,-6.136,-0.237,11.504,Fm-3m,0.0,-0.003,5.0,5.0,5.0,0.0
646824,MnInNi2,Ni,Mn,In,-5.771,-0.107,13.249,Fm-3m,0.0,1.035,5.0,5.0,5.0,0.0
528685,MgMnNi2,Ni,Mn,Mg,-5.529,-0.104,12.371,Fm-3m,0.0,1.081,0.5,0.5,3.34,-0.023
528269,MnNi2Pb,Ni,Mn,Pb,-5.843,0.123,14.291,Fm-3m,0.0,1.027,0.209,0.209,3.607,-0.038
13668,MnNi2Sb,Ni,Mn,Sb,-6.138,-0.136,13.237,Fm-3m,,0.972,0.15,0.15,3.492,-0.021
528160,MnSiNi2,Ni,Mn,Si,-6.764,-0.368,11.228,Fm-3m,0.0,0.936,0.225,0.225,3.255,-0.036
647532,MnNi2Sn,Ni,Mn,Sn,-6.226,-0.208,13.745,Fm-3m,0.0,1.011,0.215,0.215,3.548,-0.055
736217,AlNi2Pd,Ni,Pd,Al,-5.443,-0.429,12.546,F-43m,0.0,-0.001,0.0,0.0,0.0,0.0
529180,Ni2AsPd,Ni,Pd,As,-5.342,-0.101,12.847,Fm-3m,0.0,,0.0,0.0,0.0,0.0
736216,Ni2BPd,Ni,Pd,B,-5.489,0.258,10.779,F-43m,0.0,-0.0,0.0,0.0,0.0,0.0
528278,Ni2BiPd,Ni,Pd,Bi,-5.069,0.019,15.146,Fm-3m,0.0,,0.0,0.0,0.0,0.0
736220,GaNi2Pd,Ni,Pd,Ga,-5.127,-0.291,12.777,F-43m,0.0,-0.0,0.0,0.0,0.0,0.0
529892,Ni2GePd,Ni,Pd,Ge,-5.436,-0.203,12.79,Fm-3m,0.0,,0.0,0.0,0.0,0.0
527845,InNi2Pd,Ni,Pd,In,-4.91,-0.152,13.976,Fm-3m,0.0,,0.0,0.0,0.0,0.0
527804,MgNi2Pd,Ni,Pd,Mg,-4.601,-0.138,13.184,Fm-3m,0.0,-0.0,0.0,0.0,0.0,0.0
528166,Ni2PdPb,Ni,Pd,Pb,-4.971,0.033,14.742,Fm-3m,0.0,,0.0,0.0,0.0,0.0
527921,Ni2SbPd,Ni,Pd,Sb,-5.305,-0.198,14.051,Fm-3m,0.0,,0.0,0.0,0.0,0.0
736218,SiNi2Pd,Ni,Pd,Si,-5.756,-0.322,12.104,F-43m,0.0,0.003,0.001,0.004,0.0,0.0
528661,Ni2SnPd,Ni,Pd,Sn,-5.318,-0.262,14.02,Fm-3m,0.0,,0.0,0.0,0.0,0.0
748692,ZnNi2Pd,Ni,Pd,Zn,-4.538,-0.144,12.727,F-43m,0.0,0.106,0.292,0.129,0.022,-0.007
744627,AlNi2Pt,Ni,Pt,Al,-5.745,-0.511,12.701,F-43m,0.0,0.002,0.008,-0.001,0.0,0.0
529486,Ni2AsPt,Ni,Pt,As,-5.522,-0.062,13.216,Fm-3m,0.0,,0.0,0.0,0.0,0.0
744626,Ni2BPt,Ni,Pt,B,-5.767,0.2,10.962,F-43m,0.0,0.001,0.003,0.001,0.0,0.0
530284,Ni2BiPt,Ni,Pt,Bi,-5.263,0.044,15.366,Fm-3m,0.0,,0.0,0.0,0.0,0.0
744630,GaNi2Pt,Ni,Pt,Ga,-5.382,-0.327,12.921,F-43m,0.0,0.001,0.005,0.0,0.0,0.0
744631,Ni2GePt,Ni,Pt,Ge,-5.657,-0.203,12.936,F-43m,0.0,0.001,0.0,0.003,0.0,0.0
528837,InNi2Pt,Ni,Pt,In,-5.161,-0.184,14.1,Fm-3m,0.0,,0.0,0.0,0.0,0.0
529813,MgNi2Pt,Ni,Pt,Mg,-4.933,-0.25,13.276,Fm-3m,0.0,-0.0,0.0,0.0,0.0,0.0
528107,Ni2PtPb,Ni,Pt,Pb,-5.172,0.051,14.881,Fm-3m,0.0,,0.0,0.0,0.0,0.0
528768,Ni2SbPt,Ni,Pt,Sb,-5.475,-0.148,14.275,Fm-3m,0.0,,0.0,0.0,0.0,0.0
744628,SiNi2Pt,Ni,Pt,Si,-6.019,-0.365,12.287,F-43m,0.0,0.001,0.0,0.004,0.0,0.0
529361,Ni2SnPt,Ni,Pt,Sn,-5.533,-0.257,14.157,Fm-3m,0.0,,0.0,0.0,0.0,0.0
736231,AlNi2Rh,Ni,Rh,Al,-5.962,-0.425,12.306,F-43m,0.0,0.177,0.428,0.126,0.184,-0.005
736236,Ni2AsRh,Ni,Rh,As,-5.873,-0.109,12.588,F-43m,0.0,0.0,-0.001,0.002,0.0,0.0
736230,Ni2BRh,Ni,Rh,B,-6.113,0.157,10.536,F-43m,0.0,0.034,0.072,0.026,0.038,-0.002
736241,Ni2BiRh,Ni,Rh,Bi,-5.473,0.137,15.024,F-43m,0.0,0.001,0.001,0.001,0.0,0.0
736234,GaNi2Rh,Ni,Rh,Ga,-5.641,-0.282,12.502,F-43m,0.0,0.182,0.455,0.128,0.176,-0.01
736235,Ni2GeRh,Ni,Rh,Ge,-6.004,-0.247,12.501,F-43m,0.0,-0.0,-0.001,0.001,0.0,0.0
736237,InNi2Rh,Ni,Rh,In,-5.34,-0.06,14.088,F-43m,0.0,0.198,0.522,0.131,0.177,-0.01
530109,MgNi2Rh,Ni,Rh,Mg,-5.045,-0.059,12.955,Fm-3m,0.0,-0.02,-0.052,-0.052,-0.051,0.0
736240,Ni2RhPb,Ni,Rh,Pb,-5.386,0.141,14.742,F-43m,0.0,0.002,0.011,-0.003,0.0,0.0
736239,Ni2SbRh,Ni,Rh,Sb,-5.784,-0.154,13.946,F-43m,0.0,0.0,0.0,0.0,0.0,0.0
736232,SiNi2Rh,Ni,Rh,Si,-6.364,-0.407,11.809,F-43m,0.0,0.001,0.0,0.001,0.0,0.0
736238,Ni2SnRh,Ni,Rh,Sn,-5.79,-0.211,13.982,F-43m,0.0,0.004,0.011,-0.001,0.0,0.0
1121781,ZnNi2Rh,Ni,Rh,Zn,-5.008,-0.091,12.498,F-43m,0.0,0.4,0.706,0.464,0.493,-0.017
736189,AlNi2Ru,Ni,Ru,Al,-6.275,-0.254,12.251,F-43m,0.0,0.458,0.729,0.336,0.803,-0.008
736194,Ni2AsRu,Ni,Ru,As,-6.277,-0.031,12.458,F-43m,0.0,0.003,0.006,0.001,-0.001,0.0
736188,Ni2BRu,Ni,Ru,B,-6.545,0.208,10.459,F-43m,0.0,0.263,0.371,0.274,0.404,-0.006
736199,Ni2BiRu,Ni,Ru,Bi,-5.773,0.32,14.909,F-43m,0.0,0.002,0.013,-0.004,0.0,0.0
736192,GaNi2Ru,Ni,Ru,Ga,-5.966,-0.124,12.514,F-43m,0.0,0.455,0.707,0.346,0.814,-0.016
736193,Ni2GeRu,Ni,Ru,Ge,-6.356,-0.116,12.444,F-43m,0.0,0.211,0.379,0.154,0.332,-0.011
530260,InNi2Ru,Ni,Ru,In,-5.615,0.149,13.856,Fm-3m,0.0,0.317,0.255,0.255,0.77,-0.024
528082,MgNi2Ru,Ni,Ru,Mg,-5.389,0.08,12.993,Fm-3m,0.0,0.5,0.477,0.477,1.089,-0.01
736198,Ni2RuPb,Ni,Ru,Pb,-5.649,0.361,14.741,F-43m,0.0,0.23,0.469,0.11,0.372,-0.011
736197,Ni2SbRu,Ni,Ru,Sb,-6.116,-0.003,13.888,F-43m,0.0,-0.0,0.003,0.0,0.0,0.0
736190,SiNi2Ru,Ni,Ru,Si,-6.738,-0.298,11.767,F-43m,0.0,0.199,0.369,0.147,0.303,-0.006
736196,Ni2SnRu,Ni,Ru,Sn,-6.07,-0.008,13.999,F-43m,0.0,0.235,0.462,0.127,0.381,-0.014
1121773,ZnNi2Ru,Ni,Ru,Zn,-5.33,0.07,12.464,F-43m,0.0,0.511,0.669,0.427,0.994,-0.005
362708,Sc2AlAg,Sc,Ag,Al,-5.165,-0.359,19.586,Fm-3m,0.0,,0.0,0.0,0.0,0.0
361651,Sc2AgAs,Sc,Ag,As,-5.593,-0.56,19.066,Fm-3m,0.0,0.239,0.32,0.32,0.022,-0.013
360984,Sc2AgB,Sc,Ag,B,-5.522,0.017,16.834,Fm-3m,0.0,,0.0,0.0,0.0,0.0
361431,Sc2AgBi,Sc,Ag,Bi,-5.221,-0.342,21.759,Fm-3m,0.0,0.035,0.046,0.046,0.002,-0.003
362939,Sc2AgGe,Sc,Ag,Ge,-5.544,-0.518,19.421,Fm-3m,0.0,-0.0,-0.001,-0.001,0.0,0.0
361122,MgSc2Ag,Sc,Ag,Mg,-4.381,-0.125,20.727,Fm-3m,0.0,,0.0,0.0,0.0,0.0
362195,Sc2AgPb,Sc,Ag,Pb,-5.135,-0.34,21.475,Fm-3m,0.0,0.222,0.295,0.295,0.021,-0.024
362541,Sc2AgSb,Sc,Ag,Sb,-5.383,-0.484,20.964,Fm-3m,0.0,0.197,0.266,0.266,0.009,-0.013
362252,Sc2SiAg,Sc,Ag,Si,-5.685,-0.46,18.602,Fm-3m,0.0,0.007,0.012,0.012,0.003,-0.001
361924,Sc2AgSn,Sc,Ag,Sn,-5.352,-0.504,20.806,Fm-3m,0.0,0.185,0.247,0.247,0.022,-0.022
360966,Sc2AlAu,Sc,Au,Al,-5.503,-0.585,19.515,Fm-3m,0.0,,0.0,0.0,0.0,0.0
360802,Sc2AsAu,Sc,Au,As,-5.929,-0.785,18.89,Fm-3m,0.0,0.256,0.336,0.336,0.039,-0.003
362844,Sc2BAu,Sc,Au,B,-5.863,-0.213,16.99,Fm-3m,0.0,,0.0,0.0,0.0,0.0
362771,Sc2BiAu,Sc,Au,Bi,-5.542,-0.551,21.736,Fm-3m,0.0,0.009,0.012,0.012,0.001,-0.001
361362,Sc2GaAu,Sc,Au,Ga,-5.437,-0.698,19.525,Fm-3m,0.0,,0.0,0.0,0.0,0.0
361299,Sc2GeAu,Sc,Au,Ge,-5.863,-0.726,19.442,Fm-3m,0.0,-0.001,-0.004,-0.004,-0.001,0.0
360942,Sc2InAu,Sc,Au,In,-5.249,-0.588,20.527,Fm-3m,0.0,,0.0,0.0,0.0,0.0
363062,MgSc2Au,Sc,Au,Mg,-4.77,-0.403,19.78,Fm-3m,0.0,,0.0,0.0,0.0,0.0
362763,Sc2PbAu,Sc,Au,Pb,-5.442,-0.535,21.16,Fm-3m,0.0,0.197,0.262,0.262,0.027,-0.016
361945,Sc2SbAu,Sc,Au,Sb,-5.69,-0.68,20.718,Fm-3m,0.0,0.231,0.304,0.304,0.023,-0.007
362494,Sc2SiAu,Sc,Au,Si,-5.994,-0.657,18.931,Fm-3m,0.0,0.01,0.017,0.017,0.002,-0.001
362038,Sc2SnAu,Sc,Au,Sn,-5.652,-0.693,20.742,Fm-3m,0.0,0.163,0.218,0.218,0.024,-0.016
362121,Sc2AlCd,Sc,Cd,Al,-4.689,-0.363,20.348,Fm-3m,0.0,,0.0,0.0,0.0,0.0
362175,Sc2CdAs,Sc,Cd,As,-5.021,-0.469,20.297,Fm-3m,0.0,,0.0,0.0,0.0,0.0
362767,Sc2CdB,Sc,Cd,B,-4.929,0.13,17.557,Fm-3m,0.0,,0.0,0.0,0.0,0.0
362182,Sc2CdBi,Sc,Cd,Bi,-4.709,-0.31,23.323,Fm-3m,0.0,,0.0,0.0,0.0,0.0
361118,Sc2CdGa,Sc,Cd,Ga,-4.59,-0.442,20.11,Fm-3m,0.0,,0.0,0.0,0.0,0.0
362069,Sc2CdGe,Sc,Cd,Ge,-4.983,-0.438,20.108,Fm-3m,0.0,0.0,0.0,0.0,0.0,0.0
361931,Sc2CdPb,Sc,Cd,Pb,-4.619,-0.304,22.686,Fm-3m,0.0,,0.0,0.0,0.0,0.0
362386,Sc2CdSb,Sc,Cd,Sb,-4.841,-0.422,22.165,Fm-3m,0.0,,0.0,0.0,0.0,0.0
361457,Sc2CdSi,Sc,Cd,Si,-5.122,-0.376,19.399,Fm-3m,0.0,,0.0,0.0,0.0,0.0
362518,Sc2CdSn,Sc,Cd,Sn,-4.828,-0.46,21.85,Fm-3m,0.0,0.0,0.0,0.0,0.0,0.0
362654,Sc2ZnCd,Sc,Cd,Zn,-4.013,-0.307,19.812,Fm-3m,0.0,,0.0,0.0,0.0,0.0
361692,Sc2AlCo,Sc,Co,Al,-6.227,-0.354,17.315,Fm-3m,0.0,,0.0,0.0,0.0,0.0
362020,Sc2CoAs,Sc,Co,As,-6.673,-0.573,16.963,Fm-3m,0.0,,0.0,0.0,0.0,0.0
360715,Sc2CoB,Sc,Co,B,-6.738,-0.132,14.223,Fm-3m,0.0,0.001,0.0,0.0,0.004,0.0
361244,Sc2CoBi,Sc,Co,Bi,-6.154,-0.207,19.915,Fm-3m,0.0,-0.001,0.001,0.001,-0.006,0.0
361649,Sc2GaCo,Sc,Co,Ga,-6.152,-0.457,16.947,Fm-3m,0.0,0.022,-0.018,-0.018,0.141,0.003
362408,Sc2CoGe,Sc,Co,Ge,-6.618,-0.525,17.052,Fm-3m,0.0,0.191,-0.134,-0.134,1.089,0.076
363063,Sc2InCo,Sc,Co,In,-5.892,-0.275,18.92,Fm-3m,0.0,,0.0,0.0,0.0,0.0
362238,MgSc2Co,Sc,Co,Mg,-5.409,-0.087,18.083,Fm-3m,0.0,,0.0,0.0,0.0,0.0
362651,Sc2CoPb,Sc,Co,Pb,-6.05,-0.187,19.645,Fm-3m,0.0,,0.0,0.0,0.0,0.0
363022,Sc2CoSb,Sc,Co,Sb,-6.361,-0.395,19.009,Fm-3m,0.0,0.002,-0.002,-0.002,0.01,0.0
362442,Sc2CoSi,Sc,Co,Si,-6.783,-0.49,16.247,Fm-3m,0.0,,0.0,0.0,0.0,0.0
361787,Sc2CoSn,Sc,Co,Sn,-6.308,-0.393,18.849,Fm-3m,0.0,,0.0,0.0,0.0,0.0
361434,Sc2AlCu,Sc,Cu,Al,-5.375,-0.345,18.466,Fm-3m,0.0,,0.0,0.0,0.0,0.0
361345,Sc2CuAs,Sc,Cu,As,-5.833,-0.577,17.684,Fm-3m,0.0,0.003,0.005,0.005,0.0,0.0
362040,Sc2CuB,Sc,Cu,B,-5.875,-0.112,15.067,Fm-3m,0.0,,0.0,0.0,0.0,0.0
362008,Sc2CuBi,Sc,Cu,Bi,-5.381,-0.278,20.889,Fm-3m,0.0,0.0,0.001,0.001,0.0,0.0
361253,Sc2CuGe,Sc,Cu,Ge,-5.784,-0.535,17.876,Fm-3m,0.0,,0.0,0.0,0.0,0.0
362866,Sc2InCu,Sc,Cu,In,-5.101,-0.328,19.916,Fm-3m,0.0,,0.0,0.0,0.0,0.0
362110,MgSc2Cu,Sc,Cu,Mg,-4.544,-0.065,19.546,Fm-3m,0.0,,0.0,0.0,0.0,0.0
362171,Sc2CuPb,Sc,Cu,Pb,-5.293,-0.274,20.508,Fm-3m,0.0,0.172,0.229,0.229,0.023,-0.018
361019,Sc2CuSb,Sc,Cu,Sb,-5.566,-0.443,19.736,Fm-3m,0.0,0.001,0.001,0.001,0.0,0.0
362471,Sc2CuSi,Sc,Cu,Si,-5.949,-0.5,17.275,Fm-3m,0.0,,0.0,0.0,0.0,0.0
362205,Sc2CuSn,Sc,Cu,Sn,-5.53,-0.458,19.788,Fm-3m,0.0,,0.0,0.0,0.0,0.0
360811,Sc2AlFe,Sc,Fe,Al,-6.422,-0.244,17.307,Fm-3m,0.0,0.119,-0.151,-0.151,0.95,-0.014
362584,Sc2FeAs,Sc,Fe,As,-6.912,-0.508,16.998,Fm-3m,0.0,0.278,-0.32,-0.32,1.909,0.071
361377,Sc2FeB,Sc,Fe,B,-6.905,0.005,14.147,Fm-3m,0.0,0.016,-0.012,-0.012,0.094,0.0
362568,Sc2FeBi,Sc,Fe,Bi,-6.441,-0.19,20.231,Fm-3m,0.0,0.28,-0.38,-0.38,2.193,0.06
362049,Sc2GaFe,Sc,Fe,Ga,-6.343,-0.344,17.146,Fm-3m,0.0,0.176,-0.184,-0.184,1.245,-0.033
362253,Sc2FeGe,Sc,Fe,Ge,-6.832,-0.435,17.236,Fm-3m,0.0,0.344,-0.223,-0.223,1.879,0.06
362388,Sc2InFe,Sc,Fe,In,-6.109,-0.188,19.122,Fm-3m,0.0,0.252,-0.251,-0.251,1.761,-0.037
361279,MgSc2Fe,Sc,Fe,Mg,-5.584,0.043,18.079,Fm-3m,0.0,0.0,0.0,0.0,0.001,0.0
361008,Sc2FePb,Sc,Fe,Pb,-6.321,-0.154,20.023,Fm-3m,0.0,0.37,-0.276,-0.276,2.191,0.049
360991,Sc2FeSb,Sc,Fe,Sb,-6.652,-0.382,19.076,Fm-3m,0.0,0.291,-0.343,-0.343,2.104,0.06
361934,Sc2FeSi,Sc,Fe,Si,-7.013,-0.416,16.64,Fm-3m,0.0,0.306,-0.212,-0.212,1.721,0.048
362376,Sc2FeSn,Sc,Fe,Sn,-6.576,-0.357,19.307,Fm-3m,0.0,0.363,-0.259,-0.259,2.115,0.055
361041,Sc2ZnFe,Sc,Fe,Zn,-5.754,-0.196,16.555,Fm-3m,0.0,0.0,0.0,0.0,0.0,0.0
361952,Sc2AlIr,Sc,Ir,Al,-7.047,-0.733,17.899,Fm-3m,0.0,,0.0,0.0,0.0,0.0
363048,Sc2AsIr,Sc,Ir,As,-7.362,-0.821,17.738,Fm-3m,0.0,,0.0,0.0,0.0,0.0
362909,Sc2BIr,Sc,Ir,B,-7.389,-0.341,15.615,Fm-3m,0.0,,0.0,0.0,0.0,0.0
361608,Sc2GaIr,Sc,Ir,Ga,-6.937,-0.801,17.782,Fm-3m,0.0,,0.0,0.0,0.0,0.0
361335,Sc2GeIr,Sc,Ir,Ge,-7.311,-0.777,17.934,Fm-3m,0.0,,0.0,0.0,0.0,0.0
362954,Sc2InIr,Sc,Ir,In,-6.703,-0.645,19.101,Fm-3m,0.0,,0.0,0.0,0.0,0.0
361990,MgSc2Ir,Sc,Ir,Mg,-6.321,-0.557,18.252,Fm-3m,0.0,,0.0,0.0,0.0,0.0
361343,Sc2IrPb,Sc,Ir,Pb,-6.812,-0.509,19.897,Fm-3m,0.0,,0.0,0.0,0.0,0.0
361295,Sc2SbIr,Sc,Ir,Sb,-7.069,-0.662,19.376,Fm-3m,0.0,,0.0,0.0,0.0,0.0
362418,Sc2SiIr,Sc,Ir,Si,-7.47,-0.736,17.499,Fm-3m,0.0,,0.0,0.0,0.0,0.0
361778,Sc2SnIr,Sc,Ir,Sn,-7.051,-0.695,19.404,Fm-3m,0.0,,0.0,0.0,0.0,0.0
363053,LiSc2Al,Sc,Li,Al,-4.809,-0.235,19.793,Fm-3m,0.0,,0.0,0.0,0.0,0.0
361159,LiSc2As,Sc,Li,As,-5.295,-0.494,17.847,Fm-3m,0.0,-0.0,0.0,0.0,0.0,0.0
361222,LiSc2B,Sc,Li,B,-5.254,0.054,15.181,Fm-3m,0.0,,0.0,0.0,0.0,0.0
363047,LiSc2Bi,Sc,Li,Bi,-4.903,-0.255,22.118,Fm-3m,0.0,0.001,0.001,0.001,0.0,0.0
361372,LiSc2Ga,Sc,Li,Ga,-4.744,-0.348,19.024,Fm-3m,0.0,,0.0,0.0,0.0,0.0
361795,LiSc2Ge,Sc,Li,Ge,-5.253,-0.459,18.267,Fm-3m,0.0,0.0,0.0,0.0,0.0,0.0
362556,LiSc2In,Sc,Li,In,-4.581,-0.263,21.468,Fm-3m,0.0,0.0,0.0,0.0,0.0,0.0
362676,LiMgSc2,Sc,Li,Mg,-3.933,0.091,22.168,Fm-3m,0.0,0.0,0.0,0.0,0.0,0.0
361617,LiSc2Pb,Sc,Li,Pb,-4.808,-0.244,21.832,Fm-3m,0.0,0.001,0.001,0.001,0.0,0.0
361859,LiSc2Sb,Sc,Li,Sb,-5.098,-0.43,20.386,Fm-3m,0.0,0.0,0.0,0.0,0.0,0.0
363018,LiSc2Si,Sc,Li,Si,-5.426,-0.432,17.695,Fm-3m,0.0,,0.0,0.0,0.0,0.0
361213,LiSc2Sn,Sc,Li,Sn,-5.051,-0.434,20.974,Fm-3m,0.0,-0.0,0.0,0.0,0.0,0.0
362129,LiSc2Zn,Sc,Li,Zn,-4.08,-0.125,18.914,Fm-3m,0.0,,0.0,0.0,0.0,0.0
361804,MgSc2As,Sc,Mg,As,-5.059,-0.346,19.589,Fm-3m,0.0,,0.0,0.0,0.0,0.0
361026,MgSc2B,Sc,Mg,B,-4.998,0.221,16.833,Fm-3m,0.0,,0.0,0.0,0.0,0.0
362383,MgSc2Bi,Sc,Mg,Bi,-4.772,-0.213,23.328,Fm-3m,0.0,,0.0,0.0,0.0,0.0
362993,MgSc2Ga,Sc,Mg,Ga,-4.658,-0.35,20.371,Fm-3m,0.0,,0.0,0.0,0.0,0.0
360673,MgSc2Ge,Sc,Mg,Ge,-5.056,-0.35,19.869,Fm-3m,0.0,,0.0,0.0,0.0,0.0
360747,MgSc2Pb,Sc,Mg,Pb,-4.683,-0.207,22.372,Fm-3m,0.0,,0.0,0.0,0.0,0.0
362323,MgSc2Sb,Sc,Mg,Sb,-4.913,-0.334,21.69,Fm-3m,0.0,,0.0,0.0,0.0,0.0
360721,MgSc2Si,Sc,Mg,Si,-5.22,-0.314,18.997,Fm-3m,0.0,,0.0,0.0,0.0,0.0
362609,MgSc2Sn,Sc,Mg,Sn,-4.919,-0.391,21.682,Fm-3m,0.0,,0.0,0.0,0.0,0.0
734241,Sc2MnAl,Sc,Mn,Al,-6.478,-0.121,17.676,F-43m,0.0,0.5,-0.22,-0.423,2.753,-0.024
361151,Sc2MnAs,Sc,Mn,As,-6.967,-0.383,17.421,Fm-3m,0.0,0.432,-0.343,-0.343,2.476,0.055
362671,Sc2MnB,Sc,Mn,B,-6.936,0.154,14.333,Fm-3m,0.0,0.001,-0.001,-0.001,0.004,0.0
362394,Sc2MnBi,Sc,Mn,Bi,-6.55,-0.12,20.909,Fm-3m,0.0,0.512,-0.411,-0.411,3.063,0.041
360781,Sc2MnGa,Sc,Mn,Ga,-6.42,-0.241,18.095,Fm-3m,0.0,0.587,-0.253,-0.253,2.916,-0.041
362036,Sc2MnGe,Sc,Mn,Ge,-6.89,-0.313,17.95,Fm-3m,0.0,0.635,-0.274,-0.274,3.046,0.045
362455,Sc2MnIn,Sc,Mn,In,-6.236,-0.135,20.161,Fm-3m,0.0,0.662,-0.285,-0.285,3.293,-0.034
361541,MgSc2Mn,Sc,Mn,Mg,-5.716,0.091,19.841,Fm-3m,0.0,0.704,-0.222,-0.222,3.311,-0.019
361120,Sc2MnPb,Sc,Mn,Pb,-6.439,-0.092,20.804,Fm-3m,0.0,0.661,-0.336,-0.336,3.364,0.034
361893,Sc2MnSb,Sc,Mn,Sb,-6.745,-0.295,19.688,Fm-3m,0.0,0.475,-0.394,-0.394,2.871,0.045
361015,Sc2MnSi,Sc,Mn,Si,-7.061,-0.284,16.296,Fm-3m,0.0,0.082,-0.054,-0.054,0.446,-0.007
361956,Sc2MnSn,Sc,Mn,Sn,-6.684,-0.285,20.073,Fm-3m,0.0,0.654,-0.321,-0.321,3.312,0.037
362372,Sc2MnZn,Sc,Mn,Zn,-5.788,-0.05,16.795,Fm-3m,0.0,-0.001,0.001,0.001,-0.007,0.0
360688,Sc2AlNi,Sc,Ni,Al,-5.916,-0.424,17.695,Fm-3m,0.0,,0.0,0.0,0.0,0.0
360760,Sc2NiAs,Sc,Ni,As,-6.392,-0.673,17.197,Fm-3m,0.0,,0.0,0.0,0.0,0.0
362070,Sc2NiB,Sc,Ni,B,-6.445,-0.22,14.658,Fm-3m,0.0,,0.0,0.0,0.0,0.0
362890,Sc2NiBi,Sc,Ni,Bi,-5.896,-0.33,20.266,Fm-3m,0.0,0.001,0.001,0.001,0.0,0.0
362217,Sc2GaNi,Sc,Ni,Ga,-5.858,-0.544,17.439,Fm-3m,0.0,,0.0,0.0,0.0,0.0
361134,Sc2NiGe,Sc,Ni,Ge,-6.333,-0.622,17.322,Fm-3m,0.0,,0.0,0.0,0.0,0.0
361907,Sc2InNi,Sc,Ni,In,-5.611,-0.375,19.366,Fm-3m,0.0,,0.0,0.0,0.0,0.0
362596,MgSc2Ni,Sc,Ni,Mg,-5.107,-0.165,18.565,Fm-3m,0.0,,0.0,0.0,0.0,0.0
363064,Sc2NiPb,Sc,Ni,Pb,-5.801,-0.319,19.999,Fm-3m,0.0,,0.0,0.0,0.0,0.0
363034,Sc2NiSb,Sc,Ni,Sb,-6.093,-0.507,19.326,Fm-3m,0.0,0.0,0.0,0.0,0.0,0.0
362941,Sc2SiNi,Sc,Ni,Si,-6.505,-0.593,16.672,Fm-3m,0.0,,0.0,0.0,0.0,0.0
362618,Sc2NiSn,Sc,Ni,Sn,-6.048,-0.514,19.204,Fm-3m,0.0,,0.0,0.0,0.0,0.0
361154,Sc2ZnNi,Sc,Ni,Zn,-5.293,-0.421,17.03,Fm-3m,0.0,,0.0,0.0,0.0,0.0
361012,Sc2AlPd,Sc,Pd,Al,-6.03,-0.635,18.657,Fm-3m,0.0,,0.0,0.0,0.0,0.0
362032,Sc2AsPd,Sc,Pd,As,-6.504,-0.883,18.298,Fm-3m,0.0,0.192,0.263,0.263,0.028,-0.02
361969,Sc2BPd,Sc,Pd,B,-6.444,-0.316,16.063,Fm-3m,0.0,,0.0,0.0,0.0,0.0
361128,Sc2BiPd,Sc,Pd,Bi,-6.079,-0.61,20.934,Fm-3m,0.0,0.215,0.283,0.283,0.028,-0.022
362747,Sc2GaPd,Sc,Pd,Ga,-5.966,-0.75,18.649,Fm-3m,0.0,,0.0,0.0,0.0,0.0
362748,Sc2GePd,Sc,Pd,Ge,-6.436,-0.822,18.5,Fm-3m,0.0,,0.0,0.0,0.0,0.0
360700,Sc2InPd,Sc,Pd,In,-5.757,-0.619,19.967,Fm-3m,0.0,,0.0,0.0,0.0,0.0
360659,MgSc2Pd,Sc,Pd,Mg,-5.266,-0.422,19.579,Fm-3m,0.0,,0.0,0.0,0.0,0.0
361021,Sc2PdPb,Sc,Pd,Pb,-5.969,-0.584,20.684,Fm-3m,0.0,,0.0,0.0,0.0,0.0
360780,Sc2SbPd,Sc,Pd,Sb,-6.251,-0.764,20.154,Fm-3m,0.0,0.207,0.271,0.271,0.038,-0.018
362027,Sc2SiPd,Sc,Pd,Si,-6.586,-0.772,17.9,Fm-3m,0.0,,0.0,0.0,0.0,0.0
361516,Sc2SnPd,Sc,Pd,Sn,-6.197,-0.76,20.072,Fm-3m,0.0,,0.0,0.0,0.0,0.0
362173,Sc2AlPt,Sc,Pt,Al,-6.425,-0.81,18.531,Fm-3m,0.0,,0.0,0.0,0.0,0.0
362344,Sc2AsPt,Sc,Pt,As,-6.827,-0.986,18.196,Fm-3m,0.0,0.002,0.003,0.003,0.0,0.0
362641,Sc2BPt,Sc,Pt,B,-6.8,-0.453,16.153,Fm-3m,0.0,,0.0,0.0,0.0,0.0
363141,Sc2BiPt,Sc,Pt,Bi,-6.393,-0.705,20.914,Fm-3m,0.0,0.135,0.181,0.181,0.011,-0.014
362002,Sc2GaPt,Sc,Pt,Ga,-6.347,-0.911,18.538,Fm-3m,0.0,,0.0,0.0,0.0,0.0
361412,Sc2GePt,Sc,Pt,Ge,-6.763,-0.929,18.588,Fm-3m,0.0,,0.0,0.0,0.0,0.0
361693,Sc2InPt,Sc,Pt,In,-6.125,-0.767,19.624,Fm-3m,0.0,,0.0,0.0,0.0,0.0
362668,MgSc2Pt,Sc,Pt,Mg,-5.721,-0.658,18.785,Fm-3m,0.0,,0.0,0.0,0.0,0.0
360962,Sc2PtPb,Sc,Pt,Pb,-6.289,-0.685,20.353,Fm-3m,0.0,,0.0,0.0,0.0,0.0
361624,Sc2SbPt,Sc,Pt,Sb,-6.55,-0.842,19.887,Fm-3m,0.0,0.13,0.177,0.177,0.014,-0.012
362531,Sc2SiPt,Sc,Pt,Si,-6.904,-0.869,18.074,Fm-3m,0.0,,0.0,0.0,0.0,0.0
362218,Sc2SnPt,Sc,Pt,Sn,-6.51,-0.854,19.927,Fm-3m,0.0,,0.0,0.0,0.0,0.0
360719,Sc2AlRh,Sc,Rh,Al,-6.6,-0.682,18.018,Fm-3m,0.0,,0.0,0.0,0.0,0.0
362854,Sc2AsRh,Sc,Rh,As,-7.026,-0.882,17.506,Fm-3m,0.0,,0.0,0.0,0.0,0.0
361361,Sc2BRh,Sc,Rh,B,-7.002,-0.351,15.422,Fm-3m,0.0,,0.0,0.0,0.0,0.0
362590,Sc2BiRh,Sc,Rh,Bi,-6.565,-0.574,20.654,Fm-3m,0.0,,0.0,0.0,0.0,0.0
362628,Sc2GaRh,Sc,Rh,Ga,-6.515,-0.776,17.94,Fm-3m,0.0,,0.0,0.0,0.0,0.0
362633,Sc2GeRh,Sc,Rh,Ge,-6.944,-0.807,17.903,Fm-3m,0.0,,0.0,0.0,0.0,0.0
362462,Sc2InRh,Sc,Rh,In,-6.283,-0.621,19.231,Fm-3m,0.0,,0.0,0.0,0.0,0.0
362967,MgSc2Rh,Sc,Rh,Mg,-5.83,-0.463,18.509,Fm-3m,0.0,,0.0,0.0,0.0,0.0
361363,Sc2RhPb,Sc,Rh,Pb,-6.441,-0.533,19.895,Fm-3m,0.0,,0.0,0.0,0.0,0.0
361078,Sc2SbRh,Sc,Rh,Sb,-6.745,-0.734,19.403,Fm-3m,0.0,,0.0,0.0,0.0,0.0
363181,Sc2SiRh,Sc,Rh,Si,-7.108,-0.771,17.394,Fm-3m,0.0,,0.0,0.0,0.0,0.0
361280,Sc2SnRh,Sc,Rh,Sn,-6.685,-0.725,19.454,Fm-3m,0.0,,0.0,0.0,0.0,0.0
361839,Sc2ZnRh,Sc,Rh,Zn,-5.971,-0.673,17.682,Fm-3m,0.0,,0.0,0.0,0.0,0.0
361181,Sc2AsRu,Sc,Ru,As,-7.279,-0.652,17.224,Fm-3m,0.0,,0.0,0.0,0.0,0.0
361929,Sc2BRu,Sc,Ru,B,-7.299,-0.165,15.131,Fm-3m,0.0,,0.0,0.0,0.0,0.0
361469,Sc2BiRu,Sc,Ru,Bi,-6.819,-0.344,20.152,Fm-3m,0.0,,0.0,0.0,0.0,0.0
361449,Sc2GeRu,Sc,Ru,Ge,-7.242,-0.622,17.528,Fm-3m,0.0,,0.0,0.0,0.0,0.0
363118,Sc2InRu,Sc,Ru,In,-6.593,-0.448,18.977,Fm-3m,0.0,,0.0,0.0,0.0,0.0
362424,Sc2RuPb,Sc,Ru,Pb,-6.726,-0.336,19.681,Fm-3m,0.0,,0.0,0.0,0.0,0.0
362353,Sc2SbRu,Sc,Ru,Sb,-7.012,-0.518,18.995,Fm-3m,0.0,0.0,0.0,0.0,0.0,0.0
361922,Sc2SiRu,Sc,Ru,Si,-7.426,-0.605,17.05,Fm-3m,0.0,,0.0,0.0,0.0,0.0
362149,Sc2SnRu,Sc,Ru,Sn,-6.99,-0.547,19.124,Fm-3m,0.0,,0.0,0.0,0.0,0.0
563074,Ti2AlAg,Ti,Ag,Al,-5.595,-0.105,16.647,Fm-3m,0.0,,0.0,0.0,0.0,0.0
562011,Ti2AgAs,Ti,Ag,As,-5.965,-0.247,16.238,Fm-3m,0.0,,0.0,0.0,0.0,0.0
561353,Ti2AgB,Ti,Ag,B,-6.002,0.222,14.238,Fm-3m,0.101,,0.0,0.0,0.0,0.0
561797,Ti2AgBi,Ti,Ag,Bi,-5.505,0.06,18.832,Fm-3m,0.0,0.0,0.0,0.0,0.0,0.0
561165,Ti2GaAg,Ti,Ag,Ga,-5.495,-0.183,16.643,Fm-3m,0.137,,0.0,0.0,0.0,0.0
563306,Ti2AgGe,Ti,Ag,Ge,-5.931,-0.221,16.472,Fm-3m,0.0,,0.0,0.0,0.0,0.0
563028,Ti2InAg,Ti,Ag,In,-5.259,-0.025,17.947,Fm-3m,0.137,,0.0,0.0,0.0,0.0
561493,MgTi2Ag,Ti,Ag,Mg,-4.729,0.211,17.741,Fm-3m,0.0,0.331,0.567,0.567,0.04,0.003
562553,Ti2AgPb,Ti,Ag,Pb,-5.408,0.073,18.569,Fm-3m,0.0,0.196,0.355,0.355,0.004,-0.006
562907,Ti2AgSb,Ti,Ag,Sb,-5.73,-0.146,17.971,Fm-3m,0.0,,0.0,0.0,0.0,0.0
562609,Ti2SiAg,Ti,Ag,Si,-6.135,-0.224,15.761,Fm-3m,0.0,,0.0,0.0,0.0,0.0
562281,Ti2AgSn,Ti,Ag,Sn,-5.685,-0.152,17.934,Fm-3m,0.0,,0.0,0.0,0.0,0.0
562525,Ti2ZnAg,Ti,Ag,Zn,-4.87,0.001,16.523,Fm-3m,0.0,0.271,0.476,0.476,0.037,0.0
561335,Ti2AlAu,Ti,Au,Al,-5.893,-0.291,16.875,Fm-3m,0.0,0.016,0.022,0.022,0.003,-0.001
561171,Ti2AsAu,Ti,Au,As,-6.267,-0.439,16.482,Fm-3m,0.0,,0.0,0.0,0.0,0.0
563210,Ti2BAu,Ti,Au,B,-6.264,0.072,14.557,Fm-3m,0.0,0.027,0.045,0.045,0.006,-0.004
563137,Ti2BiAu,Ti,Au,Bi,-5.803,-0.128,18.94,Fm-3m,0.0,0.0,0.0,0.0,0.0,0.0
561729,Ti2GaAu,Ti,Au,Ga,-5.786,-0.362,16.668,Fm-3m,0.0,0.001,0.001,0.001,0.0,0.0
561668,Ti2GeAu,Ti,Au,Ge,-6.207,-0.385,16.671,Fm-3m,0.0,0.0,0.001,0.001,0.0,0.0
1141500,MgTi2Au,Ti,Au,Mg,-5.231,-0.182,17.318,F-43m,0.0,0.751,5.0,5.0,0.0,0.0
563129,Ti2PbAu,Ti,Au,Pb,-5.692,-0.101,18.535,Fm-3m,0.0,0.025,0.056,0.056,0.001,0.0
562305,Ti2SbAu,Ti,Au,Sb,-6.01,-0.315,18.05,Fm-3m,0.0,0.0,0.0,0.0,0.0,0.0
562856,Ti2SiAu,Ti,Au,Si,-6.396,-0.374,16.157,Fm-3m,0.0,0.0,0.0,0.0,0.0,0.0
562397,Ti2SnAu,Ti,Au,Sn,-5.957,-0.313,18.063,Fm-3m,0.0,0.005,0.01,0.01,0.0,0.0