id,formula,X,Y,Z,energy,formation,volume,spacegroup,band_gap,tot_mag,X1_mag,X2_mag,Y_mag,Z_mag
486958,Nb2CoB,Nb,Co,B,-8.324,0.165,13.462,Fm-3m,0.0,0.432,0.134,0.134,1.283,0.079
738025,Nb2CoBi,Nb,Co,Bi,-7.374,0.455,17.838,F-43m,0.0,-0.005,0.0,0.007,-0.031,0.0
487894,Nb2GaCo,Nb,Co,Ga,-7.542,0.035,15.522,Fm-3m,0.0,-0.006,-0.001,-0.001,-0.024,-0.001
488655,Nb2CoGe,Nb,Co,Ge,-8.027,-0.052,15.481,Fm-3m,0.0,0.369,0.081,0.081,1.225,0.044
738021,Nb2InCo,Nb,Co,In,-7.228,0.272,17.018,F-43m,0.0,0.518,0.12,0.887,0.963,0.002
488485,MgNb2Co,Nb,Co,Mg,-6.817,0.387,16.031,Fm-3m,0.0,0.003,-0.002,-0.002,0.002,0.0
738024,Nb2CoPb,Nb,Co,Pb,-7.279,0.466,17.792,F-43m,0.0,0.292,-0.027,0.388,0.79,0.002
489269,Nb2CoSb,Nb,Co,Sb,-7.689,0.16,16.968,Fm-3m,0.0,-0.002,0.001,0.001,-0.015,0.0
488688,Nb2CoSi,Nb,Co,Si,-8.324,-0.149,14.929,Fm-3m,0.0,0.376,0.074,0.074,1.267,0.039
738022,Nb2CoSn,Nb,Co,Sn,-7.646,0.152,16.993,F-43m,0.0,0.279,-0.006,0.399,0.69,0.005
487196,Nb2ZnCo,Nb,Co,Zn,-6.994,0.142,15.147,Fm-3m,0.0,-0.011,-0.005,-0.005,-0.036,-0.001
487680,Nb2AlCu,Nb,Cu,Al,-6.864,0.049,15.978,Fm-3m,0.0,,0.0,0.0,0.0,0.0
487592,Nb2CuAs,Nb,Cu,As,-7.194,-0.055,15.722,Fm-3m,0.0,,0.0,0.0,0.0,0.0
488285,Nb2CuB,Nb,Cu,B,-7.427,0.219,13.655,Fm-3m,0.0,,0.0,0.0,0.0,0.0
488254,Nb2CuBi,Nb,Cu,Bi,-6.562,0.423,18.391,Fm-3m,0.0,,0.0,0.0,0.0,0.0
488550,Nb2GaCu,Nb,Cu,Ga,-6.722,0.012,15.835,Fm-3m,0.0,,0.0,0.0,0.0,0.0
487501,Nb2CuGe,Nb,Cu,Ge,-7.162,-0.03,15.807,Fm-3m,0.0,,0.0,0.0,0.0,0.0
489110,Nb2InCu,Nb,Cu,In,-6.358,0.298,17.483,Fm-3m,0.0,,0.0,0.0,0.0,0.0
488355,MgNb2Cu,Nb,Cu,Mg,-5.931,0.431,16.585,Fm-3m,0.0,,0.0,0.0,0.0,0.0
488416,Nb2CuPb,Nb,Cu,Pb,-6.456,0.446,18.177,Fm-3m,0.0,,0.0,0.0,0.0,0.0
487261,Nb2CuSb,Nb,Cu,Sb,-6.862,0.143,17.513,Fm-3m,0.0,,0.0,0.0,0.0,0.0
488717,Nb2CuSi,Nb,Cu,Si,-7.444,-0.112,15.218,Fm-3m,0.0,,0.0,0.0,0.0,0.0
488451,Nb2CuSn,Nb,Cu,Sn,-6.804,0.15,17.475,Fm-3m,0.0,,0.0,0.0,0.0,0.0
488745,Nb2ZnCu,Nb,Cu,Zn,-6.126,0.166,15.529,Fm-3m,0.0,,0.0,0.0,0.0,0.0
487053,Nb2AlFe,Nb,Fe,Al,-8.084,-0.024,15.905,Fm-3m,0.0,0.536,-0.03,-0.03,2.127,0.028
488825,Nb2FeAs,Nb,Fe,As,-8.397,-0.11,15.566,Fm-3m,0.0,0.477,-0.16,-0.16,2.156,0.05
487624,Nb2FeB,Nb,Fe,B,-8.624,0.169,13.619,Fm-3m,0.0,0.538,-0.01,-0.01,1.98,0.085
488809,Nb2FeBi,Nb,Fe,Bi,-7.76,0.374,18.209,Fm-3m,0.0,0.472,-0.244,-0.244,2.392,0.036
488295,Nb2GaFe,Nb,Fe,Ga,-7.93,-0.048,15.757,Fm-3m,0.0,0.539,-0.034,-0.034,2.134,0.051
488500,Nb2FeGe,Nb,Fe,Ge,-8.372,-0.092,15.69,Fm-3m,0.0,0.472,-0.151,-0.151,2.149,0.048
737924,Nb2InFe,Nb,Fe,In,-7.54,0.264,16.927,F-43m,0.0,0.724,-0.102,1.049,1.879,-0.014
487526,MgNb2Fe,Nb,Fe,Mg,-7.172,0.337,16.368,Fm-3m,0.0,0.448,-0.074,-0.074,1.97,0.0
487250,Nb2FePb,Nb,Fe,Pb,-7.644,0.406,18.02,Fm-3m,0.0,0.428,-0.294,-0.294,2.354,0.035
487234,Nb2FeSb,Nb,Fe,Sb,-8.085,0.068,17.262,Fm-3m,0.0,0.474,-0.216,-0.216,2.321,0.039
488179,Nb2FeSi,Nb,Fe,Si,-8.668,-0.188,15.147,Fm-3m,0.0,0.484,-0.118,-0.118,2.105,0.046
488622,Nb2FeSn,Nb,Fe,Sn,-8.012,0.091,17.389,Fm-3m,0.0,0.443,-0.249,-0.249,2.302,0.04
487283,Nb2ZnFe,Nb,Fe,Zn,-7.268,0.172,15.145,Fm-3m,0.0,-0.011,-0.002,-0.002,-0.055,-0.001
745645,Nb2AlIr,Nb,Ir,Al,-8.49,-0.292,16.313,F-43m,0.0,0.006,0.002,0.014,0.003,0.0
489294,Nb2AsIr,Nb,Ir,As,-8.606,-0.182,16.624,Fm-3m,0.0,,0.0,0.0,0.0,0.0
489153,Nb2BIr,Nb,Ir,B,-8.676,0.254,14.89,Fm-3m,0.0,,0.0,0.0,0.0,0.0
489114,Nb2BiIr,Nb,Ir,Bi,-8.022,0.248,18.791,Fm-3m,0.0,,0.0,0.0,0.0,0.0
745648,Nb2GaIr,Nb,Ir,Ga,-8.193,-0.175,16.388,F-43m,0.0,0.004,0.001,0.008,0.002,0.0
487582,Nb2GeIr,Nb,Ir,Ge,-8.536,-0.12,16.655,Fm-3m,0.0,,0.0,0.0,0.0,0.0
745651,Nb2InIr,Nb,Ir,In,-7.94,0.001,17.757,F-43m,0.0,0.003,0.0,0.005,0.001,0.0
1146457,MgNb2Ir,Nb,Ir,Mg,-7.682,-0.035,16.865,F-43m,0.0,0.251,0.055,0.679,0.117,0.004
745654,Nb2IrPb,Nb,Ir,Pb,-7.915,0.272,18.477,F-43m,0.0,0.113,-0.007,0.287,0.103,0.006
487542,Nb2SbIr,Nb,Ir,Sb,-8.289,0.001,17.996,Fm-3m,0.0,,0.0,0.0,0.0,0.0
745646,Nb2SiIr,Nb,Ir,Si,-8.828,-0.211,15.776,F-43m,0.0,0.002,0.002,0.003,0.0,0.0
745652,Nb2SnIr,Nb,Ir,Sn,-8.313,-0.074,17.781,F-43m,0.0,0.003,-0.002,0.007,0.002,0.0
1121896,Nb2ZnIr,Nb,Ir,Zn,-7.658,-0.08,16.192,F-43m,0.0,0.033,0.0,0.0,0.0,0.0
489299,LiNb2Al,Nb,Li,Al,-6.285,0.172,16.262,Fm-3m,0.0,,0.0,0.0,0.0,0.0
737826,LiNb2As,Nb,Li,As,-6.623,0.061,16.154,F-43m,0.0,0.002,0.002,0.001,0.0,0.0
487469,LiNb2B,Nb,Li,B,-6.897,0.293,13.111,Fm-3m,0.0,,0.0,0.0,0.0,0.0
737831,LiNb2Bi,Nb,Li,Bi,-6.266,0.265,18.895,F-43m,0.0,0.001,0.0,0.001,0.0,0.0
487619,LiNb2Ga,Nb,Li,Ga,-6.149,0.131,15.969,Fm-3m,0.0,,0.0,0.0,0.0,0.0
488038,LiNb2Ge,Nb,Li,Ge,-6.612,0.065,15.82,Fm-3m,0.0,,0.0,0.0,0.0,0.0
737827,LiNb2In,Nb,Li,In,-5.879,0.322,18.427,F-43m,0.0,0.243,0.558,0.201,0.009,0.011
737929,LiMgNb2,Nb,Li,Mg,-5.403,0.503,17.999,F-43m,0.0,0.009,0.016,0.011,0.0,0.0
737830,LiNb2Pb,Nb,Li,Pb,-6.089,0.358,18.983,F-43m,0.0,0.005,0.015,-0.003,0.0,0.0
737829,LiNb2Sb,Nb,Li,Sb,-6.509,0.042,17.901,F-43m,0.0,0.0,0.0,0.0,0.0,0.0
489265,LiNb2Si,Nb,Li,Si,-6.904,-0.027,15.184,Fm-3m,0.0,,0.0,0.0,0.0,0.0
737828,LiNb2Sn,Nb,Li,Sn,-6.381,0.119,18.202,F-43m,0.0,0.03,0.075,0.016,0.0,-0.002
488374,LiNb2Zn,Nb,Li,Zn,-5.516,0.322,15.693,Fm-3m,0.0,,0.0,0.0,0.0,0.0
737932,MgNb2Al,Nb,Mg,Al,-6.221,0.148,17.908,F-43m,0.0,0.151,0.313,0.195,-0.001,-0.002
737937,MgNb2As,Nb,Mg,As,-6.435,0.16,17.441,F-43m,0.0,0.018,-0.003,0.047,0.0,0.001
487268,MgNb2B,Nb,Mg,B,-6.46,0.642,14.847,Fm-3m,0.0,,0.0,0.0,0.0,0.0
737942,MgNb2Bi,Nb,Mg,Bi,-6.068,0.375,20.096,F-43m,0.0,0.02,-0.012,0.06,0.0,0.0
737935,MgNb2Ga,Nb,Mg,Ga,-6.013,0.178,17.787,F-43m,0.0,0.075,0.156,0.095,0.0,-0.001
737936,MgNb2Ge,Nb,Mg,Ge,-6.443,0.146,17.444,F-43m,0.0,0.001,0.001,0.001,0.0,0.0
737938,MgNb2In,Nb,Mg,In,-5.836,0.276,19.364,F-43m,0.0,0.041,0.0,0.0,0.0,0.0
737941,MgNb2Pb,Nb,Mg,Pb,-5.974,0.384,19.89,F-43m,0.0,0.001,0.0,0.002,0.0,0.0
737940,MgNb2Sb,Nb,Mg,Sb,-6.315,0.147,19.002,F-43m,0.0,0.03,-0.006,0.082,0.0,0.003
737933,MgNb2Si,Nb,Mg,Si,-6.68,0.109,16.913,F-43m,0.0,0.001,0.001,0.001,0.0,0.0
737939,MgNb2Sn,Nb,Mg,Sn,-6.293,0.118,19.141,F-43m,0.0,0.001,0.002,0.001,0.0,0.0
737934,MgNb2Zn,Nb,Mg,Zn,-5.411,0.338,17.765,F-43m,0.0,0.16,0.345,0.165,0.002,0.005
737960,MnNb2Al,Nb,Mn,Al,-8.225,0.015,15.473,F-43m,0.0,0.499,-0.36,0.462,1.88,-0.023
487398,MnNb2As,Nb,Mn,As,-8.513,-0.046,15.733,Fm-3m,0.0,0.396,-0.303,-0.303,2.104,0.048
488915,MnNb2B,Nb,Mn,B,-8.724,0.249,13.534,Fm-3m,0.0,0.2,-0.165,-0.165,1.075,0.03
488640,MnNb2Bi,Nb,Mn,Bi,-7.906,0.407,18.432,Fm-3m,0.0,0.303,-0.622,-0.622,2.576,0.028
487022,MnNb2Ga,Nb,Mn,Ga,-8.04,0.021,15.678,Fm-3m,0.0,0.245,-0.21,-0.21,1.409,-0.008
737964,MnNb2Ge,Nb,Mn,Ge,-8.416,0.043,15.398,F-43m,0.0,0.722,-0.233,0.82,2.187,-0.018
737966,MnNb2In,Nb,Mn,In,-7.737,0.247,17.0,F-43m,0.0,0.579,-0.437,0.289,2.493,-0.043
487788,MgMnNb2,Nb,Mn,Mg,-7.345,0.344,16.064,Fm-3m,0.0,0.0,0.0,0.0,0.001,0.0
737969,MnNb2Pb,Nb,Mn,Pb,-7.837,0.392,18.288,F-43m,0.0,0.77,-0.419,0.599,2.836,-0.025
488137,MnNb2Sb,Nb,Mn,Sb,-8.218,0.115,17.474,Fm-3m,0.0,0.364,-0.461,-0.461,2.413,0.033
487257,MnNb2Si,Nb,Mn,Si,-8.763,-0.103,15.165,Fm-3m,0.0,0.285,-0.247,-0.247,1.605,0.028
737967,MnNb2Sn,Nb,Mn,Sn,-8.204,0.078,17.513,F-43m,0.0,0.751,-0.389,0.689,2.612,-0.026
488618,MnNb2Zn,Nb,Mn,Zn,-7.494,0.126,15.23,Fm-3m,0.0,-0.002,-0.001,-0.001,-0.005,0.0
486932,Nb2AlNi,Nb,Ni,Al,-7.385,-0.01,15.704,Fm-3m,0.0,,0.0,0.0,0.0,0.0
487001,Nb2NiAs,Nb,Ni,As,-7.796,-0.195,15.413,Fm-3m,0.0,,0.0,0.0,0.0,0.0
488316,Nb2NiB,Nb,Ni,B,-7.99,0.118,13.425,Fm-3m,0.0,,0.0,0.0,0.0,0.0
489134,Nb2NiBi,Nb,Ni,Bi,-7.122,0.327,18.074,Fm-3m,0.0,,0.0,0.0,0.0,0.0
488463,Nb2GaNi,Nb,Ni,Ga,-7.249,-0.052,15.609,Fm-3m,0.0,,0.0,0.0,0.0,0.0
487380,Nb2NiGe,Nb,Ni,Ge,-7.723,-0.128,15.552,Fm-3m,0.0,,0.0,0.0,0.0,0.0
488150,Nb2InNi,Nb,Ni,In,-6.861,0.258,17.287,Fm-3m,0.0,,0.0,0.0,0.0,0.0
488838,MgNb2Ni,Nb,Ni,Mg,-6.481,0.343,16.185,Fm-3m,0.0,,0.0,0.0,0.0,0.0
489309,Nb2NiPb,Nb,Ni,Pb,-6.977,0.388,17.864,Fm-3m,0.0,,0.0,0.0,0.0,0.0
489281,Nb2NiSb,Nb,Ni,Sb,-7.439,0.029,17.136,Fm-3m,0.0,,0.0,0.0,0.0,0.0
489185,Nb2SiNi,Nb,Ni,Si,-8.009,-0.214,15.048,Fm-3m,0.0,,0.0,0.0,0.0,0.0
488861,Nb2NiSn,Nb,Ni,Sn,-7.334,0.083,17.331,Fm-3m,0.0,,0.0,0.0,0.0,0.0
487401,Nb2ZnNi,Nb,Ni,Zn,-6.67,0.085,15.336,Fm-3m,0.0,,0.0,0.0,0.0,0.0
737849,Nb2AlPd,Nb,Pd,Al,-7.363,-0.086,16.731,F-43m,0.0,0.219,0.167,0.485,0.069,0.003
488277,Nb2AsPd,Nb,Pd,As,-7.755,-0.251,16.535,Fm-3m,0.0,,0.0,0.0,0.0,0.0
488214,Nb2BPd,Nb,Pd,B,-7.758,0.253,14.848,Fm-3m,0.0,,0.0,0.0,0.0,0.0
487374,Nb2BiPd,Nb,Pd,Bi,-7.195,0.156,18.852,Fm-3m,0.0,,0.0,0.0,0.0,0.0
488989,Nb2GaPd,Nb,Pd,Ga,-7.184,-0.085,16.905,Fm-3m,0.0,,0.0,0.0,0.0,0.0
488990,Nb2GePd,Nb,Pd,Ge,-7.676,-0.179,16.785,Fm-3m,0.0,,0.0,0.0,0.0,0.0
737855,Nb2InPd,Nb,Pd,In,-6.928,0.093,18.225,F-43m,0.0,0.151,0.101,0.344,0.042,0.008
486902,MgNb2Pd,Nb,Pd,Mg,-6.443,0.284,17.494,Fm-3m,0.0,,0.0,0.0,0.0,0.0
487263,Nb2PdPb,Nb,Pd,Pb,-7.037,0.23,18.741,Fm-3m,0.0,,0.0,0.0,0.0,0.0
487021,Nb2SbPd,Nb,Pd,Sb,-7.475,-0.105,18.091,Fm-3m,0.0,,0.0,0.0,0.0,0.0
488272,Nb2SiPd,Nb,Pd,Si,-7.923,-0.226,16.182,Fm-3m,0.0,,0.0,0.0,0.0,0.0
487762,Nb2SnPd,Nb,Pd,Sn,-7.365,-0.046,18.161,Fm-3m,0.0,,0.0,0.0,0.0,0.0
488008,Nb2ZnPd,Nb,Pd,Zn,-6.579,0.079,16.652,Fm-3m,0.0,,0.0,0.0,0.0,0.0
745617,Nb2AlPt,Nb,Pt,Al,-7.759,-0.262,16.678,F-43m,0.0,0.183,0.103,0.436,0.076,0.003
488586,Nb2AsPt,Nb,Pt,As,-8.062,-0.338,16.804,Fm-3m,0.0,,0.0,0.0,0.0,0.0
488884,Nb2BPt,Nb,Pt,B,-8.034,0.196,15.164,Fm-3m,0.0,,0.0,0.0,0.0,0.0
489386,Nb2BiPt,Nb,Pt,Bi,-7.506,0.064,18.979,Fm-3m,0.0,,0.0,0.0,0.0,0.0
488247,Nb2GaPt,Nb,Pt,Ga,-7.497,-0.178,17.018,Fm-3m,0.0,,0.0,0.0,0.0,0.0
487658,Nb2GePt,Nb,Pt,Ge,-7.959,-0.242,16.989,Fm-3m,0.0,,0.0,0.0,0.0,0.0
745623,Nb2InPt,Nb,Pt,In,-7.261,-0.02,18.138,F-43m,0.0,0.033,0.009,0.085,0.013,0.002
488912,MgNb2Pt,Nb,Pt,Mg,-6.85,0.097,17.432,Fm-3m,0.0,,0.0,0.0,0.0,0.0
487208,Nb2PtPb,Nb,Pt,Pb,-7.333,0.154,18.783,Fm-3m,0.0,,0.0,0.0,0.0,0.0
487869,Nb2SbPt,Nb,Pt,Sb,-7.766,-0.176,18.236,Fm-3m,0.0,,0.0,0.0,0.0,0.0
488774,Nb2SiPt,Nb,Pt,Si,-8.196,-0.279,16.506,Fm-3m,0.0,,0.0,0.0,0.0,0.0
488464,Nb2SnPt,Nb,Pt,Sn,-7.65,-0.111,18.292,Fm-3m,0.0,,0.0,0.0,0.0,0.0
745619,Nb2ZnPt,Nb,Pt,Zn,-6.957,-0.079,16.602,F-43m,0.0,0.008,0.003,0.016,0.002,0.0
737877,Nb2AlRh,Nb,Rh,Al,-8.028,-0.227,16.332,F-43m,0.0,0.29,0.156,0.657,0.157,-0.001
489098,Nb2AsRh,Nb,Rh,As,-8.255,-0.228,16.41,Fm-3m,0.0,,0.0,0.0,0.0,0.0
487608,Nb2BRh,Nb,Rh,B,-8.314,0.22,14.591,Fm-3m,0.0,,0.0,0.0,0.0,0.0
737887,Nb2BiRh,Nb,Rh,Bi,-7.675,0.199,18.671,F-43m,0.0,0.003,0.001,0.0,0.0,0.0
737880,Nb2GaRh,Nb,Rh,Ga,-7.775,-0.153,16.399,F-43m,0.0,0.224,0.129,0.533,0.129,0.006
488876,Nb2GeRh,Nb,Rh,Ge,-8.175,-0.155,16.502,Fm-3m,0.0,,0.0,0.0,0.0,0.0
737883,Nb2InRh,Nb,Rh,In,-7.542,0.003,17.745,F-43m,0.0,0.308,0.162,0.711,0.189,0.011
489212,MgNb2Rh,Nb,Rh,Mg,-7.054,0.196,17.06,Fm-3m,0.0,,0.0,0.0,0.0,0.0
737886,Nb2RhPb,Nb,Rh,Pb,-7.59,0.201,18.42,F-43m,0.0,0.148,0.009,0.367,0.129,0.006
737885,Nb2SbRh,Nb,Rh,Sb,-7.962,-0.068,17.705,F-43m,0.0,0.006,0.002,0.002,-0.001,-0.001
489425,Nb2SiRh,Nb,Rh,Si,-8.437,-0.217,16.06,Fm-3m,0.0,,0.0,0.0,0.0,0.0
737884,Nb2SnRh,Nb,Rh,Sn,-7.95,-0.108,17.793,F-43m,0.0,0.167,0.026,0.4,0.144,0.01
1121878,Nb2ZnRh,Nb,Rh,Zn,-7.212,-0.031,16.178,F-43m,0.0,0.277,0.0,0.0,0.0,0.0
737808,Nb2AlRu,Nb,Ru,Al,-8.468,-0.184,16.209,F-43m,0.0,0.003,0.0,0.008,0.002,0.0
487428,Nb2AsRu,Nb,Ru,As,-8.563,-0.053,16.373,Fm-3m,0.0,,0.0,0.0,0.0,0.0
488173,Nb2BRu,Nb,Ru,B,-8.716,0.301,14.505,Fm-3m,0.0,,0.0,0.0,0.0,0.0
737818,Nb2BiRu,Nb,Ru,Bi,-8.068,0.289,18.454,F-43m,0.0,0.003,-0.002,0.007,0.004,0.0
737811,Nb2GaRu,Nb,Ru,Ga,-8.214,-0.108,16.212,F-43m,0.0,0.003,0.0,0.008,0.002,0.0
737812,Nb2GeRu,Nb,Ru,Ge,-8.59,-0.086,16.19,F-43m,0.0,0.004,0.0,0.009,0.004,0.0
737814,Nb2InRu,Nb,Ru,In,-7.944,0.083,17.618,F-43m,0.0,0.031,0.01,0.08,0.012,0.001
487184,MgNb2Ru,Nb,Ru,Mg,-7.527,0.206,16.905,Fm-3m,0.0,,0.0,0.0,0.0,0.0
737817,Nb2RuPb,Nb,Ru,Pb,-7.994,0.279,18.248,F-43m,0.0,0.001,-0.001,0.003,0.001,0.0
737816,Nb2SbRu,Nb,Ru,Sb,-8.381,-0.004,17.517,F-43m,0.0,0.003,0.001,0.004,0.001,0.0
737809,Nb2SiRu,Nb,Ru,Si,-8.896,-0.192,15.611,F-43m,0.0,0.043,0.014,0.09,0.035,-0.001
737815,Nb2SnRu,Nb,Ru,Sn,-8.371,-0.045,17.655,F-43m,0.0,0.007,-0.001,0.013,0.007,0.0
748825,Nb2ZnRu,Nb,Ru,Zn,-7.631,0.033,16.053,F-43m,0.0,0.131,0.047,0.365,0.053,0.007
529852,AlNi2Ag,Ni,Ag,Al,-4.609,-0.184,12.906,Fm-3m,0.0,,0.0,0.0,0.0,0.0
528794,Ni2AgAs,Ni,Ag,As,-4.586,0.066,13.463,Fm-3m,0.0,,0.0,0.0,0.0,0.0
528129,Ni2AgB,Ni,Ag,B,-4.585,0.574,11.503,Fm-3m,0.0,,0.0,0.0,0.0,0.0
528577,Ni2AgBi,Ni,Ag,Bi,-4.337,0.161,15.926,Fm-3m,0.0,,0.0,0.0,0.0,0.0
527937,GaNi2Ag,Ni,Ag,Ga,-4.332,-0.085,13.205,Fm-3m,0.0,,0.0,0.0,0.0,0.0
530081,Ni2AgGe,Ni,Ag,Ge,-4.652,-0.008,13.339,Fm-3m,0.0,,0.0,0.0,0.0,0.0
529807,InNi2Ag,Ni,Ag,In,-4.167,0.002,14.491,Fm-3m,0.0,,0.0,0.0,0.0,0.0
528272,MgNi2Ag,Ni,Ag,Mg,-3.866,0.008,13.742,Fm-3m,0.0,,0.0,0.0,0.0,0.0
529340,Ni2AgPb,Ni,Ag,Pb,-4.228,0.187,15.369,Fm-3m,0.0,,0.0,0.0,0.0,0.0
529687,Ni2AgSb,Ni,Ag,Sb,-4.528,-0.01,15.027,Fm-3m,0.0,,0.0,0.0,0.0,0.0
529394,SiNi2Ag,Ni,Ag,Si,-4.914,-0.069,12.483,Fm-3m,0.0,,0.0,0.0,0.0,0.0
529067,Ni2AgSn,Ni,Ag,Sn,-4.548,-0.08,14.576,Fm-3m,0.0,,0.0,0.0,0.0,0.0
529314,ZnNi2Ag,Ni,Ag,Zn,-3.768,0.038,12.838,Fm-3m,0.0,,0.0,0.0,0.0,0.0
528111,AlNi2Au,Ni,Au,Al,-4.838,-0.301,13.089,Fm-3m,0.0,,0.0,0.0,0.0,0.0
527944,Ni2AsAu,Ni,Au,As,-4.736,0.027,13.724,Fm-3m,0.0,,0.0,0.0,0.0,0.0
529914,Ni2BiAu,Ni,Au,Bi,-4.509,0.101,16.097,Fm-3m,0.0,,0.0,0.0,0.0,0.0
528510,GaNi2Au,Ni,Au,Ga,-4.533,-0.175,13.396,Fm-3m,0.0,,0.0,0.0,0.0,0.0
528446,Ni2GeAu,Ni,Au,Ge,-4.809,-0.053,13.509,Fm-3m,0.0,,0.0,0.0,0.0,0.0
528086,InNi2Au,Ni,Au,In,-4.38,-0.1,14.643,Fm-3m,0.0,,0.0,0.0,0.0,0.0
530204,MgNi2Au,Ni,Au,Mg,-4.149,-0.164,13.824,Fm-3m,0.0,,0.0,0.0,0.0,0.0
529906,Ni2PbAu,Ni,Au,Pb,-4.402,0.124,15.584,Fm-3m,0.0,,0.0,0.0,0.0,0.0
529091,Ni2SbAu,Ni,Au,Sb,-4.673,-0.043,15.036,Fm-3m,0.0,,0.0,0.0,0.0,0.0
529636,SiNi2Au,Ni,Au,Si,-5.071,-0.115,12.845,Fm-3m,0.0,,0.0,0.0,0.0,0.0
529186,Ni2SnAu,Ni,Au,Sn,-4.724,-0.146,14.762,Fm-3m,0.0,,0.0,0.0,0.0,0.0
529062,ZnNi2Au,Ni,Au,Zn,-4.002,-0.085,13.081,Fm-3m,0.0,,0.0,0.0,0.0,0.0
529266,AlCdNi2,Ni,Cd,Al,-4.169,-0.224,13.371,Fm-3m,0.0,,0.0,0.0,0.0,0.0
529321,CdNi2As,Ni,Cd,As,-4.125,0.047,14.02,Fm-3m,0.0,,0.0,0.0,0.0,0.0
529910,CdNi2B,Ni,Cd,B,-4.139,0.539,11.973,Fm-3m,0.0,,0.0,0.0,0.0,0.0
529327,CdNi2Bi,Ni,Cd,Bi,-3.883,0.135,16.726,Fm-3m,0.0,,0.0,0.0,0.0,0.0
528267,CdGaNi2,Ni,Cd,Ga,-3.893,-0.126,13.637,Fm-3m,0.0,,0.0,0.0,0.0,0.0
529217,CdNi2Ge,Ni,Cd,Ge,-4.185,-0.02,13.92,Fm-3m,0.0,,0.0,0.0,0.0,0.0
528383,CdInNi2,Ni,Cd,In,-3.742,-0.053,15.01,Fm-3m,0.0,,0.0,0.0,0.0,0.0
530294,MgCdNi2,Ni,Cd,Mg,-3.474,-0.08,14.304,Fm-3m,0.0,,0.0,0.0,0.0,0.0
529075,CdNi2Pb,Ni,Cd,Pb,-3.776,0.159,16.004,Fm-3m,0.0,,0.0,0.0,0.0,0.0
529529,CdNi2Sb,Ni,Cd,Sb,-4.043,-0.005,15.501,Fm-3m,0.0,,0.0,0.0,0.0,0.0
528603,CdSiNi2,Ni,Cd,Si,-4.436,-0.071,13.01,Fm-3m,0.0,,0.0,0.0,0.0,0.0
529662,CdNi2Sn,Ni,Cd,Sn,-4.082,-0.095,15.06,Fm-3m,0.0,,0.0,0.0,0.0,0.0
529798,ZnCdNi2,Ni,Cd,Zn,-3.365,-0.04,13.244,Fm-3m,0.0,,0.0,0.0,0.0,0.0
715809,AlCoNi2,Ni,Co,Al,-5.775,-0.283,11.246,F-43m,0.0,0.299,0.332,0.055,0.895,-0.02
734053,CoNi2As,Ni,Co,As,-5.767,-0.048,11.338,F-43m,0.0,-0.005,-0.002,-0.001,-0.02,0.0
732435,CoNi2B,Ni,Co,B,-6.049,0.176,9.499,F-43m,0.0,0.249,0.032,0.32,0.705,-0.033
715819,CoNi2Bi,Ni,Co,Bi,-5.287,0.278,13.778,F-43m,0.0,-0.18,-0.024,-0.05,-0.678,0.012
732439,GaCoNi2,Ni,Co,Ga,-5.477,-0.163,11.489,F-43m,0.0,0.413,0.167,0.361,1.185,-0.046
734052,CoNi2Ge,Ni,Co,Ge,-5.863,-0.151,11.372,F-43m,0.0,-0.22,-0.202,-0.056,-0.633,0.023
734054,InCoNi2,Ni,Co,In,-5.144,0.092,12.982,F-43m,0.0,0.451,0.387,0.199,1.308,-0.045
529382,MgCoNi2,Ni,Co,Mg,-4.89,0.051,11.886,Fm-3m,0.0,0.536,0.282,0.282,1.654,-0.009
715818,CoNi2Pb,Ni,Co,Pb,-5.181,0.301,13.568,F-43m,0.0,0.002,0.005,0.0,0.001,0.0
715817,CoNi2Sb,Ni,Co,Sb,-5.621,-0.036,12.769,F-43m,0.0,-0.127,0.006,-0.045,-0.498,0.007
734049,CoSiNi2,Ni,Co,Si,-6.241,-0.329,10.623,F-43m,0.0,0.001,0.006,-0.003,0.001,0.0
734055,CoNi2Sn,Ni,Co,Sn,-5.589,-0.055,12.79,F-43m,0.0,0.003,0.004,-0.001,0.004,0.0
747980,ZnCoNi2,Ni,Co,Zn,-4.881,-0.009,11.478,F-43m,0.0,0.558,0.542,0.282,1.517,-0.042
732537,CuNi2As,Ni,Cu,As,-4.874,0.001,12.111,F-43m,0.0,0.001,0.001,0.0,0.0,0.0
529188,CuNi2B,Ni,Cu,B,-5.214,0.168,9.724,Fm-3m,0.0,,0.0,0.0,0.0,0.0
529156,CuNi2Bi,Ni,Cu,Bi,-4.581,0.141,14.413,Fm-3m,0.0,,0.0,0.0,0.0,0.0
528401,CuNi2Ge,Ni,Cu,Ge,-5.073,-0.205,11.752,Fm-3m,0.0,,0.0,0.0,0.0,0.0
530009,InCuNi2,Ni,Cu,In,-4.455,-0.063,13.088,Fm-3m,0.0,,0.0,0.0,0.0,0.0
529255,MgCuNi2,Ni,Cu,Mg,-4.172,-0.074,11.975,Fm-3m,0.0,,0.0,0.0,0.0,0.0
529316,CuNi2Pb,Ni,Cu,Pb,-4.486,0.152,13.945,Fm-3m,0.0,,0.0,0.0,0.0,0.0
647160,CuNi2Sb,Ni,Cu,Sb,-4.801,-0.111,12.901,Fm-3m,0.0,,5.0,5.0,0.0,0.0
529614,CuSiNi2,Ni,Cu,Si,-5.414,-0.346,10.953,Fm-3m,0.0,,0.0,0.0,0.0,0.0
17156,CuNi2Sn,Ni,Cu,Sn,-4.815,-0.174,12.893,Fm-3m,,,0.0,0.0,0.0,0.0
529646,ZnCuNi2,Ni,Cu,Zn,-4.147,-0.118,11.286,Fm-3m,0.0,,0.0,0.0,0.0,0.0
527952,AlFeNi2,Ni,Fe,Al,-6.119,-0.322,11.391,Fm-3m,0.0,0.78,0.223,0.223,2.701,-0.02
734121,FeNi2As,Ni,Fe,As,-6.084,-0.061,11.764,F-43m,0.0,0.702,0.409,0.197,2.223,-0.015
715844,FeNi2B,Ni,Fe,B,-6.392,0.138,9.622,F-43m,0.0,0.614,0.447,0.112,1.972,-0.062
529714,FeNi2Bi,Ni,Fe,Bi,-5.61,0.26,14.526,Fm-3m,0.0,0.875,0.255,0.255,2.935,0.015
734120,FeNi2Ge,Ni,Fe,Ge,-6.163,-0.147,11.713,F-43m,0.0,0.69,0.454,0.175,2.197,-0.051
529531,InFeNi2,Ni,Fe,In,-5.536,0.004,13.089,Fm-3m,0.0,0.817,0.23,0.23,2.851,-0.041
528426,MgFeNi2,Ni,Fe,Mg,-5.274,-0.028,12.105,Fm-3m,0.0,0.891,0.414,0.414,2.816,-0.017
528153,FeNi2Pb,Ni,Fe,Pb,-5.54,0.246,13.888,Fm-3m,0.0,0.825,0.203,0.203,2.884,-0.016
528136,FeNi2Sb,Ni,Fe,Sb,-5.894,-0.004,13.216,Fm-3m,0.0,0.812,0.191,0.191,2.811,0.01
732473,FeSiNi2,Ni,Fe,Si,-6.526,-0.31,10.846,F-43m,0.0,0.618,0.168,0.434,1.939,-0.04
529520,FeNi2Sn,Ni,Fe,Sn,-5.931,-0.092,13.121,Fm-3m,0.0,0.803,0.185,0.185,2.83,-0.026
528186,ZnFeNi2,Ni,Fe,Zn,-5.266,-0.089,11.347,Fm-3m,0.0,0.893,0.405,0.405,2.802,-0.033
744210,AlNi2Ir,Ni,Ir,Al,-6.307,-0.374,12.466,F-43m,0.0,0.223,0.492,0.182,0.238,-0.004
744215,Ni2AsIr,Ni,Ir,As,-6.154,0.006,12.843,F-43m,0.0,0.0,-0.001,0.002,0.0,0.0
744209,Ni2BIr,Ni,Ir,B,-6.472,0.194,10.686,F-43m,0.0,0.061,0.108,0.057,0.057,-0.003
530013,Ni2BiIr,Ni,Ir,Bi,-5.694,0.312,15.043,Fm-3m,0.0,0.004,0.004,0.004,0.005,0.0
744213,GaNi2Ir,Ni,Ir,Ga,-5.948,-0.193,12.671,F-43m,0.0,0.209,0.471,0.17,0.212,-0.008
744214,Ni2GeIr,Ni,Ir,Ge,-6.3,-0.147,12.655,F-43m,0.0,0.003,0.011,0.0,0.001,0.0
530096,InNi2Ir,Ni,Ir,In,-5.638,0.039,13.872,Fm-3m,0.0,,0.0,0.0,0.0,0.0
529137,MgNi2Ir,Ni,Ir,Mg,-5.428,-0.045,12.998,Fm-3m,0.0,0.003,0.006,0.006,0.005,0.0
528491,Ni2IrPb,Ni,Ir,Pb,-5.617,0.306,14.593,Fm-3m,0.0,,0.0,0.0,0.0,0.0
744218,Ni2SbIr,Ni,Ir,Sb,-6.031,-0.005,14.177,F-43m,0.0,0.001,0.0,0.003,0.0,0.0
744211,SiNi2Ir,Ni,Ir,Si,-6.7,-0.346,11.926,F-43m,0.0,0.002,0.007,0.0,0.0,0.0
744217,Ni2SnIr,Ni,Ir,Sn,-6.054,-0.078,14.186,F-43m,0.0,0.004,0.014,-0.005,0.0,0.0
744212,ZnNi2Ir,Ni,Ir,Zn,-5.327,-0.013,12.54,F-43m,0.0,0.425,0.716,0.479,0.553,-0.009
528308,LiNi2As,Ni,Li,As,-4.775,-0.355,11.372,Fm-3m,0.0,-0.0,0.0,0.0,0.0,0.0
528370,LiNi2B,Ni,Li,B,-5.041,-0.114,8.662,Fm-3m,0.0,,0.0,0.0,0.0,0.0
530189,LiNi2Bi,Ni,Li,Bi,-4.337,-0.07,14.505,Fm-3m,0.0,,0.0,0.0,0.0,0.0
529702,LiInNi2,Ni,Li,In,-4.083,-0.146,13.422,Fm-3m,0.0,,0.0,0.0,0.0,0.0
734031,LiMgNi2,Ni,Li,Mg,-3.706,-0.063,12.44,F-43m,0.0,-0.0,0.001,0.001,0.0,0.0
528761,LiNi2Pb,Ni,Li,Pb,-4.203,-0.019,14.222,Fm-3m,0.0,,0.0,0.0,0.0,0.0
646161,LiSiNi2,Ni,Li,Si,-5.081,-0.514,10.279,Fm-3m,0.0,,5.0,5.0,0.0,0.0
529274,LiZnNi2,Ni,Li,Zn,-3.724,-0.15,11.305,Fm-3m,0.0,,0.0,0.0,0.0,0.0
529825,MgAlNi2,Ni,Mg,Al,-4.538,-0.433,12.741,Fm-3m,0.0,,0.0,0.0,0.0,0.0
528949,MgNi2As,Ni,Mg,As,-4.568,-0.237,13.083,Fm-3m,0.0,,0.0,0.0,0.0,0.0
528171,MgNi2B,Ni,Mg,B,-4.7,0.138,10.42,Fm-3m,0.0,,0.0,0.0,0.0,0.0
529527,MgNi2Bi,Ni,Mg,Bi,-4.226,-0.047,15.968,Fm-3m,0.0,,0.0,0.0,0.0,0.0
527818,MgNi2Ge,Ni,Mg,Ge,-4.633,-0.308,12.956,Fm-3m,0.0,,0.0,0.0,0.0,0.0
527891,MgNi2Pb,Ni,Mg,Pb,-4.127,-0.032,15.463,Fm-3m,0.0,,0.0,0.0,0.0,0.0
529464,MgNi2Sb,Ni,Mg,Sb,-4.458,-0.26,14.588,Fm-3m,0.0,,0.0,0.0,0.0,0.0
527865,MgSiNi2,Ni,Mg,Si,-4.936,-0.411,12.199,Fm-3m,0.0,,0.0,0.0,0.0,0.0
529639,MgZnNi2,Ni,Mg,Zn,-3.706,-0.221,12.665,Fm-3m,0.0,,0.0,0.0,0.0,0.0
10500,MnAlNi2,Ni,Mn,Al,-6.328,-0.41,11.568,Fm-3m,,0.994,0.361,0.361,3.26,-0.031