id,formula,X,Y,Z,energy,formation,volume,spacegroup,band_gap,tot_mag,X1_mag,X2_mag,Y_mag,Z_mag
557598,Zr2AsPt,Zr,Pt,As,-7.699,-0.749,18.794,Fm-3m,0.0,,0.0,0.0,0.0,0.0
557900,Zr2BPt,Zr,Pt,B,-7.66,-0.203,17.075,Fm-3m,0.0,,0.0,0.0,0.0,0.0
558400,Zr2BiPt,Zr,Pt,Bi,-7.201,-0.404,21.273,Fm-3m,0.0,,0.0,0.0,0.0,0.0
557260,Zr2GaPt,Zr,Pt,Ga,-7.168,-0.622,19.157,Fm-3m,0.0,,0.0,0.0,0.0,0.0
556676,Zr2GePt,Zr,Pt,Ge,-7.599,-0.656,19.159,Fm-3m,0.0,,0.0,0.0,0.0,0.0
556952,Zr2InPt,Zr,Pt,In,-6.919,-0.452,20.327,Fm-3m,0.0,,0.0,0.0,0.0,0.0
557928,MgZr2Pt,Zr,Pt,Mg,-6.528,-0.355,19.531,Fm-3m,0.0,,0.0,0.0,0.0,0.0
556225,Zr2PtPb,Zr,Pt,Pb,-7.076,-0.363,20.924,Fm-3m,0.0,,0.0,0.0,0.0,0.0
556882,Zr2SbPt,Zr,Pt,Sb,-7.405,-0.588,20.431,Fm-3m,0.0,,0.0,0.0,0.0,0.0
557470,Zr2SnPt,Zr,Pt,Sn,-7.324,-0.558,20.498,Fm-3m,0.0,,0.0,0.0,0.0,0.0
555980,Zr2AlRh,Zr,Rh,Al,-7.472,-0.445,18.781,Fm-3m,0.0,,0.0,0.0,0.0,0.0
558113,Zr2AsRh,Zr,Rh,As,-7.88,-0.626,18.348,Fm-3m,0.0,,0.0,0.0,0.0,0.0
556626,Zr2BRh,Zr,Rh,B,-7.899,-0.139,16.427,Fm-3m,0.0,,0.0,0.0,0.0,0.0
557849,Zr2BiRh,Zr,Rh,Bi,-7.361,-0.26,20.918,Fm-3m,0.0,,0.0,0.0,0.0,0.0
557887,Zr2GaRh,Zr,Rh,Ga,-7.373,-0.524,18.652,Fm-3m,0.0,,0.0,0.0,0.0,0.0
557720,Zr2InRh,Zr,Rh,In,-7.104,-0.333,19.97,Fm-3m,0.0,,0.0,0.0,0.0,0.0
558228,MgZr2Rh,Zr,Rh,Mg,-6.712,-0.236,19.206,Fm-3m,0.0,,0.0,0.0,0.0,0.0
556628,Zr2RhPb,Zr,Rh,Pb,-7.239,-0.222,20.569,Fm-3m,0.0,,0.0,0.0,0.0,0.0
556342,Zr2SbRh,Zr,Rh,Sb,-7.579,-0.458,20.009,Fm-3m,0.0,,0.0,0.0,0.0,0.0
556545,Zr2SnRh,Zr,Rh,Sn,-7.51,-0.44,20.125,Fm-3m,0.0,,0.0,0.0,0.0,0.0
557097,Zr2ZnRh,Zr,Rh,Zn,-6.853,-0.446,18.389,Fm-3m,0.0,,0.0,0.0,0.0,0.0
557610,Zr2AlRu,Zr,Ru,Al,-7.88,-0.369,18.577,Fm-3m,0.0,,0.0,0.0,0.0,0.0
556447,Zr2AsRu,Zr,Ru,As,-8.165,-0.428,18.352,Fm-3m,0.0,,0.0,0.0,0.0,0.0
557187,Zr2BRu,Zr,Ru,B,-8.269,-0.025,16.239,Fm-3m,0.0,,0.0,0.0,0.0,0.0
556732,Zr2BiRu,Zr,Ru,Bi,-7.641,-0.058,20.84,Fm-3m,0.0,,0.0,0.0,0.0,0.0
556416,Zr2GaRu,Zr,Ru,Ga,-7.759,-0.427,18.386,Fm-3m,0.0,,0.0,0.0,0.0,0.0
556713,Zr2GeRu,Zr,Ru,Ge,-8.123,-0.393,18.408,Fm-3m,0.0,,0.0,0.0,0.0,0.0
558376,Zr2InRu,Zr,Ru,In,-7.482,-0.228,19.79,Fm-3m,0.0,,0.0,0.0,0.0,0.0
556201,MgZr2Ru,Zr,Ru,Mg,-7.136,-0.176,19.171,Fm-3m,0.0,,0.0,0.0,0.0,0.0
557682,Zr2RuPb,Zr,Ru,Pb,-7.555,-0.055,20.471,Fm-3m,0.0,,0.0,0.0,0.0,0.0
557609,Zr2SbRu,Zr,Ru,Sb,-7.864,-0.261,20.019,Fm-3m,0.0,,0.0,0.0,0.0,0.0
557179,Zr2SiRu,Zr,Ru,Si,-8.323,-0.392,17.921,Fm-3m,0.0,,0.0,0.0,0.0,0.0
557404,Zr2SnRu,Zr,Ru,Sn,-7.835,-0.283,19.965,Fm-3m,0.0,,0.0,0.0,0.0,0.0
556922,Zr2ZnRu,Zr,Ru,Zn,-7.254,-0.363,18.157,Fm-3m,0.0,,0.0,0.0,0.0,0.0