id,formula,X,Y,Z,energy,formation,volume,spacegroup,band_gap,tot_mag,X1_mag,X2_mag,Y_mag,Z_mag
473872,MgMn2Rh,Mn,Rh,Mg,-6.703,0.014,14.455,Fm-3m,0.0,1.938,3.498,3.498,0.605,-0.025
736100,Mn2RhPb,Mn,Rh,Pb,-7.042,0.214,16.33,F-43m,0.0,1.906,3.568,3.442,0.415,-0.075
736099,Mn2SbRh,Mn,Rh,Sb,-7.416,-0.055,14.011,F-43m,0.0,0.994,3.276,0.293,0.33,0.005
736092,Mn2SiRh,Mn,Rh,Si,-8.094,-0.407,12.205,F-43m,0.0,0.749,3.019,-0.428,0.299,0.021
736098,Mn2SnRh,Mn,Rh,Sn,-7.403,-0.094,15.53,F-43m,0.0,1.833,3.469,3.287,0.417,-0.097
472744,Mn2ZnRh,Mn,Rh,Zn,-6.699,-0.051,13.671,Fm-3m,0.0,1.936,3.483,3.483,0.637,-0.049
736049,Mn2AlRu,Mn,Ru,Al,-7.923,-0.172,12.182,F-43m,0.0,0.724,1.904,0.87,0.074,-0.012
736054,Mn2AsRu,Mn,Ru,As,-8.05,-0.073,12.681,F-43m,0.0,0.744,2.963,-0.27,0.119,0.047
736048,Mn2BRu,Mn,Ru,B,-8.373,0.11,10.829,F-43m,0.0,0.603,0.0,0.0,0.0,0.0
736059,Mn2BiRu,Mn,Ru,Bi,-7.395,0.428,15.304,F-43m,0.0,1.516,3.112,2.65,0.181,-0.052
736052,Mn2GaRu,Mn,Ru,Ga,-7.64,-0.068,12.645,F-43m,0.0,0.792,1.82,1.343,-0.066,-0.035
736053,Mn2GeRu,Mn,Ru,Ge,-8.147,-0.177,12.403,F-43m,0.0,0.501,2.784,-0.974,0.084,0.033
474025,Mn2InRu,Mn,Ru,In,-7.299,0.195,15.119,Fm-3m,0.0,1.888,3.354,3.354,0.7,-0.092
471848,MgMn2Ru,Mn,Ru,Mg,-6.982,0.217,14.196,Fm-3m,0.0,1.773,3.301,3.301,0.287,-0.025
736058,Mn2RuPb,Mn,Ru,Pb,-7.344,0.396,15.867,F-43m,0.0,1.804,3.379,3.41,0.251,-0.069
736057,Mn2SbRu,Mn,Ru,Sb,-7.825,0.018,14.262,F-43m,0.0,0.75,3.178,-0.493,0.182,0.027
736050,Mn2SiRu,Mn,Ru,Si,-8.558,-0.388,12.039,F-43m,0.0,0.499,2.658,-0.813,0.058,0.03
736056,Mn2SnRu,Mn,Ru,Sn,-7.713,0.08,14.658,F-43m,0.0,1.705,3.173,3.19,0.292,-0.084
1122688,Mn2ZnRu,Mn,Ru,Zn,-7.008,0.122,12.832,F-43m,0.0,1.025,2.803,1.397,-0.189,-0.024
737724,AlAgMo2,Mo,Ag,Al,-6.806,0.26,15.963,F-43m,0.0,0.003,0.008,-0.002,0.001,0.0
448624,AgMo2As,Mo,Ag,As,-6.848,0.445,15.689,Fm-3m,0.0,,0.0,0.0,0.0,0.0
447962,AgBMo2,Mo,Ag,B,-6.918,0.881,13.907,Fm-3m,0.0,,0.0,0.0,0.0,0.0
737734,AgBiMo2,Mo,Ag,Bi,-6.35,0.789,18.608,F-43m,0.0,0.013,0.659,-0.581,-0.008,-0.023
737727,GaAgMo2,Mo,Ag,Ga,-6.511,0.377,16.147,F-43m,0.0,0.002,0.006,-0.002,0.0,0.0
449912,AgGeMo2,Mo,Ag,Ge,-6.827,0.459,15.833,Fm-3m,0.0,,0.0,0.0,0.0,0.0
737730,InAgMo2,Mo,Ag,In,-6.303,0.507,17.454,F-43m,0.0,0.005,0.025,-0.014,0.001,0.0
448104,MgAgMo2,Mo,Ag,Mg,-5.647,0.868,16.569,Fm-3m,0.0,,0.0,0.0,0.0,0.0
737733,AgMo2Pb,Mo,Ag,Pb,-6.292,0.763,18.261,F-43m,0.0,0.006,0.036,-0.018,0.001,0.0
449515,AgSbMo2,Mo,Ag,Sb,-6.638,0.521,17.145,Fm-3m,0.0,,0.0,0.0,0.0,0.0
449219,SiAgMo2,Mo,Ag,Si,-7.119,0.367,15.168,Fm-3m,0.0,,0.0,0.0,0.0,0.0
737731,AgSnMo2,Mo,Ag,Sn,-6.669,0.439,17.499,F-43m,0.0,0.002,0.009,-0.005,0.0,0.0
748529,ZnAgMo2,Mo,Ag,Zn,-5.964,0.482,16.019,F-43m,0.0,0.004,0.018,-0.011,0.001,0.0
745547,AlMo2Au,Mo,Au,Al,-7.033,0.144,16.068,F-43m,0.0,0.001,0.005,-0.001,0.001,0.0
447778,Mo2AsAu,Mo,Au,As,-7.146,0.258,15.833,Fm-3m,0.0,,0.0,0.0,0.0,0.0
449815,BMo2Au,Mo,Au,B,-7.187,0.723,14.257,Fm-3m,0.0,,0.0,0.0,0.0,0.0
449741,BiMo2Au,Mo,Au,Bi,-6.635,0.616,18.12,Fm-3m,0.0,,0.0,0.0,0.0,0.0
745550,GaMo2Au,Mo,Au,Ga,-6.693,0.306,16.238,F-43m,0.0,0.011,0.038,-0.006,0.005,0.0
448275,GeMo2Au,Mo,Au,Ge,-7.117,0.28,16.021,Fm-3m,0.0,,0.0,0.0,0.0,0.0
745553,InMo2Au,Mo,Au,In,-6.482,0.439,17.567,F-43m,0.0,0.016,0.057,-0.011,0.006,0.0
1141998,MgMo2Au,Mo,Au,Mg,-6.343,0.277,16.53,F-43m,0.0,0.0,5.0,5.0,0.0,0.0
449734,Mo2PbAu,Mo,Au,Pb,-6.494,0.673,17.787,Fm-3m,0.0,,0.0,0.0,0.0,0.0
448918,SbMo2Au,Mo,Au,Sb,-6.918,0.352,17.213,Fm-3m,0.0,,0.0,0.0,0.0,0.0
449464,SiMo2Au,Mo,Au,Si,-7.396,0.201,15.492,Fm-3m,0.0,,0.0,0.0,0.0,0.0
449012,SnMo2Au,Mo,Au,Sn,-6.843,0.376,17.272,Fm-3m,0.0,,0.0,0.0,0.0,0.0
745549,ZnMo2Au,Mo,Au,Zn,-6.209,0.348,16.063,F-43m,0.0,0.007,0.028,-0.013,0.003,0.0
737738,AlCdMo2,Mo,Cd,Al,-6.336,0.25,16.455,F-43m,0.0,0.001,0.001,0.0,0.0,0.0
449144,CdMo2As,Mo,Cd,As,-6.294,0.518,16.335,Fm-3m,0.0,,0.0,0.0,0.0,0.0
449738,CdBMo2,Mo,Cd,B,-6.321,0.998,14.424,Fm-3m,0.0,,0.0,0.0,0.0,0.0
737748,CdBiMo2,Mo,Cd,Bi,-5.858,0.8,19.589,F-43m,0.0,0.158,0.852,-0.401,0.031,0.018
737741,CdGaMo2,Mo,Cd,Ga,-6.035,0.372,16.596,F-43m,0.0,0.002,0.002,0.001,0.0,0.0
737742,CdGeMo2,Mo,Cd,Ge,-6.305,0.5,16.692,F-43m,0.0,-0.002,0.035,-0.036,0.001,-0.002
737744,CdInMo2,Mo,Cd,In,-5.832,0.497,18.012,F-43m,0.0,0.001,0.006,-0.004,0.0,0.0
450124,MgCdMo2,Mo,Cd,Mg,-5.206,0.828,17.204,Fm-3m,0.0,,0.0,0.0,0.0,0.0
737747,CdMo2Pb,Mo,Cd,Pb,-5.774,0.802,18.967,F-43m,0.0,-0.0,0.024,-0.024,0.0,-0.001
449355,CdSbMo2,Mo,Cd,Sb,-6.122,0.557,17.827,Fm-3m,0.0,0.0,0.0,0.0,0.0,0.0
737739,CdSiMo2,Mo,Cd,Si,-6.591,0.414,15.968,F-43m,0.0,0.001,0.011,-0.01,0.0,0.0
737745,CdSnMo2,Mo,Cd,Sn,-6.145,0.483,18.066,F-43m,0.0,-0.0,0.032,-0.032,0.001,-0.002
748580,ZnCdMo2,Mo,Cd,Zn,-5.53,0.436,16.548,F-43m,0.0,0.0,0.001,0.0,0.0,0.0
737710,AlCoMo2,Mo,Co,Al,-8.176,-0.043,14.079,F-43m,0.0,0.002,0.003,-0.001,0.0,0.0
448995,CoMo2As,Mo,Co,As,-8.247,0.113,13.946,Fm-3m,0.0,0.066,-0.031,-0.031,0.337,0.002
447690,CoBMo2,Mo,Co,B,-8.559,0.307,12.14,Fm-3m,0.0,0.299,0.016,0.016,1.056,0.059
737720,CoBiMo2,Mo,Co,Bi,-7.59,0.617,16.442,F-43m,0.0,0.493,0.972,-0.297,1.278,-0.002
737713,GaCoMo2,Mo,Co,Ga,-7.868,0.087,14.247,F-43m,0.0,0.003,0.007,-0.006,0.006,-0.001
737714,CoGeMo2,Mo,Co,Ge,-8.225,0.127,14.238,F-43m,0.0,0.237,0.324,-0.163,0.822,-0.009
737716,InCoMo2,Mo,Co,In,-7.528,0.349,15.625,F-43m,0.0,0.01,0.02,-0.023,0.05,-0.003
449206,MgCoMo2,Mo,Co,Mg,-6.967,0.615,14.491,Fm-3m,0.0,,0.0,0.0,0.0,0.0
737719,CoMo2Pb,Mo,Co,Pb,-7.511,0.612,16.205,F-43m,0.0,0.301,0.494,-0.281,1.041,-0.016
737718,CoSbMo2,Mo,Co,Sb,-7.95,0.276,15.493,F-43m,0.0,0.465,0.742,-0.187,1.3,-0.001
737711,CoSiMo2,Mo,Co,Si,-8.593,-0.041,13.598,F-43m,0.0,0.207,0.259,-0.117,0.729,-0.004
737717,CoSnMo2,Mo,Co,Sn,-7.953,0.222,15.674,F-43m,0.0,0.27,0.394,-0.227,0.974,-0.021
1122676,ZnCoMo2,Mo,Co,Zn,-7.258,0.255,14.128,F-43m,0.0,0.217,-0.046,0.3,0.605,0.001
737752,AlCuMo2,Mo,Cu,Al,-7.212,0.077,14.699,F-43m,0.0,0.001,0.001,0.0,0.0,0.0
448320,CuMo2As,Mo,Cu,As,-7.308,0.208,14.379,Fm-3m,0.0,,0.0,0.0,0.0,0.0
449014,CuBMo2,Mo,Cu,B,-7.591,0.431,12.349,Fm-3m,0.0,,0.0,0.0,0.0,0.0
696507,CuBiMo2,Mo,Cu,Bi,-6.696,0.667,17.235,F-43m,0.0,-0.0,0.144,-0.134,-0.005,-0.006
737755,GaCuMo2,Mo,Cu,Ga,-6.913,0.198,14.788,F-43m,0.0,-0.001,0.0,0.0,0.0,0.0
448231,CuGeMo2,Mo,Cu,Ge,-7.276,0.233,14.439,Fm-3m,0.0,,0.0,0.0,0.0,0.0
737758,InCuMo2,Mo,Cu,In,-6.642,0.391,16.241,F-43m,0.0,0.0,0.001,0.0,0.0,0.0
449081,MgCuMo2,Mo,Cu,Mg,-6.038,0.7,15.091,Fm-3m,0.0,,0.0,0.0,0.0,0.0
737761,CuMo2Pb,Mo,Cu,Pb,-6.631,0.648,16.944,F-43m,0.0,0.001,0.009,-0.007,0.0,0.0
737760,CuSbMo2,Mo,Cu,Sb,-7.022,0.361,16.188,F-43m,0.0,-0.0,0.014,-0.012,0.0,0.0
449441,CuSiMo2,Mo,Cu,Si,-7.617,0.093,13.88,Fm-3m,0.0,,0.0,0.0,0.0,0.0
737759,CuSnMo2,Mo,Cu,Sn,-7.043,0.288,16.205,F-43m,0.0,0.001,0.001,0.0,0.0,0.0
1122685,ZnCuMo2,Mo,Cu,Zn,-6.329,0.341,14.789,F-43m,0.0,0.003,0.004,-0.001,0.0,0.0
737627,AlFeMo2,Mo,Fe,Al,-8.448,-0.011,14.084,F-43m,0.0,0.243,-0.162,0.246,0.91,-0.009
449557,FeMo2As,Mo,Fe,As,-8.576,0.088,14.252,Fm-3m,0.0,0.586,-0.047,-0.047,2.325,0.053
448351,FeBMo2,Mo,Fe,B,-8.917,0.253,12.337,Fm-3m,0.0,0.484,-0.1,-0.1,2.002,0.069
449542,FeBiMo2,Mo,Fe,Bi,-7.889,0.622,16.785,Fm-3m,0.0,0.612,-0.096,-0.096,2.593,0.034
449023,GaFeMo2,Mo,Fe,Ga,-8.156,0.103,14.345,Fm-3m,0.0,0.482,-0.149,-0.149,2.187,0.036
449220,FeGeMo2,Mo,Fe,Ge,-8.599,0.058,14.346,Fm-3m,0.0,0.476,-0.184,-0.184,2.231,0.042
737633,InFeMo2,Mo,Fe,In,-7.79,0.391,15.549,F-43m,0.0,0.399,-0.16,0.154,1.689,-0.029
448256,MgFeMo2,Mo,Fe,Mg,-7.362,0.524,14.799,Fm-3m,0.0,0.329,-0.283,-0.283,2.002,-0.005
447986,FeMo2Pb,Mo,Fe,Pb,-7.776,0.651,16.618,Fm-3m,0.0,0.54,-0.179,-0.179,2.515,0.023
447969,FeSbMo2,Mo,Fe,Sb,-8.269,0.262,15.85,Fm-3m,0.0,0.598,-0.08,-0.08,2.498,0.036
448906,FeSiMo2,Mo,Fe,Si,-8.967,-0.11,13.716,Fm-3m,0.0,0.476,-0.149,-0.149,2.146,0.043
737634,FeSnMo2,Mo,Fe,Sn,-8.21,0.27,15.537,F-43m,0.0,0.391,0.062,-0.047,1.617,-0.037
1122667,ZnFeMo2,Mo,Fe,Zn,-7.554,0.263,14.269,F-43m,0.0,0.487,0.471,-0.235,1.723,-0.009
745505,AlMo2Ir,Mo,Ir,Al,-8.807,-0.233,15.085,F-43m,0.0,-0.003,-0.001,0.001,0.0,0.0
450019,Mo2AsIr,Mo,Ir,As,-8.695,0.106,15.353,Fm-3m,0.0,,0.0,0.0,0.0,0.0
745504,BMo2Ir,Mo,Ir,B,-8.831,0.476,13.557,F-43m,0.0,0.0,0.002,0.002,0.0,0.0
449841,BiMo2Ir,Mo,Ir,Bi,-8.085,0.563,17.442,Fm-3m,0.0,,0.0,0.0,0.0,0.0
745508,GaMo2Ir,Mo,Ir,Ga,-8.441,-0.045,15.186,F-43m,0.0,0.0,0.0,0.0,0.0,0.0
745509,GeMo2Ir,Mo,Ir,Ge,-8.694,0.099,15.24,F-43m,0.0,0.138,0.444,-0.026,0.084,0.011
745511,InMo2Ir,Mo,Ir,In,-8.111,0.207,16.523,F-43m,0.0,0.001,0.001,0.0,0.0,0.0
1147237,MgMo2Ir,Mo,Ir,Mg,-7.976,0.048,15.523,F-43m,0.0,0.002,0.005,-0.002,0.001,0.0
745514,Mo2IrPb,Mo,Ir,Pb,-8.0,0.564,17.256,F-43m,0.0,0.248,0.893,-0.163,0.15,0.012
448271,SbMo2Ir,Mo,Ir,Sb,-8.401,0.266,16.598,Fm-3m,0.0,,0.0,0.0,0.0,0.0
745506,SiMo2Ir,Mo,Ir,Si,-9.072,-0.078,14.627,F-43m,0.0,0.061,0.187,-0.008,0.034,0.003
745512,SnMo2Ir,Mo,Ir,Sn,-8.453,0.163,16.585,F-43m,0.0,0.179,0.587,-0.077,0.136,0.005
745507,ZnMo2Ir,Mo,Ir,Zn,-7.886,0.068,15.087,F-43m,0.0,0.0,-0.001,0.001,0.0,0.0
737530,LiAlMo2,Mo,Li,Al,-6.773,0.061,14.799,F-43m,0.0,-0.001,0.0,0.0,0.0,0.0
737535,LiMo2As,Mo,Li,As,-7.073,-0.012,14.38,F-43m,0.0,-0.0,0.0,0.0,0.0,0.0
448202,LiBMo2,Mo,Li,B,-7.084,0.484,11.663,Fm-3m,0.0,,0.0,0.0,0.0,0.0
737540,LiBiMo2,Mo,Li,Bi,-6.583,0.325,16.93,F-43m,0.0,0.001,0.008,-0.006,0.0,0.0
737533,LiGaMo2,Mo,Li,Ga,-6.56,0.096,14.763,F-43m,0.0,-0.0,0.0,0.0,0.0,0.0
737534,LiGeMo2,Mo,Li,Ge,-7.037,0.018,14.569,F-43m,0.0,0.0,0.001,0.001,0.0,0.0
737536,LiInMo2,Mo,Li,In,-6.306,0.272,16.34,F-43m,0.0,-0.0,0.0,0.0,0.0,0.0
737638,LiMgMo2,Mo,Li,Mg,-5.869,0.415,15.718,F-43m,0.0,0.0,-0.002,0.003,0.0,0.0
737539,LiMo2Pb,Mo,Li,Pb,-6.441,0.384,16.881,F-43m,0.0,0.001,-0.005,0.008,0.0,0.0
737538,LiSbMo2,Mo,Li,Sb,-6.899,0.029,15.962,F-43m,0.0,0.001,0.001,-0.001,0.0,0.0
737531,LiSiMo2,Mo,Li,Si,-7.321,-0.067,14.0,F-43m,0.0,-0.0,0.0,0.0,0.0,0.0
737537,LiSnMo2,Mo,Li,Sn,-6.801,0.075,16.164,F-43m,0.0,0.0,-0.001,0.002,0.0,0.0
749036,LiZnMo2,Mo,Li,Zn,-5.891,0.323,14.764,F-43m,0.0,-0.0,-0.002,0.004,0.0,0.0
737641,MgAlMo2,Mo,Mg,Al,-6.714,0.032,15.931,F-43m,0.0,0.0,0.0,0.0,0.0,0.0
737646,MgMo2As,Mo,Mg,As,-6.762,0.211,15.803,F-43m,0.0,0.003,0.009,-0.002,0.0,0.0
737640,MgBMo2,Mo,Mg,B,-6.891,0.588,13.757,F-43m,0.0,0.001,0.0,-0.001,0.0,0.0
737651,MgBiMo2,Mo,Mg,Bi,-6.282,0.537,18.424,F-43m,0.0,0.125,0.485,-0.1,0.009,0.016
737644,MgGaMo2,Mo,Mg,Ga,-6.473,0.095,15.83,F-43m,0.0,0.001,0.0,0.001,0.0,0.0
737645,MgGeMo2,Mo,Mg,Ge,-6.856,0.109,15.627,F-43m,0.0,-0.0,0.0,0.0,0.0,0.0
737647,MgInMo2,Mo,Mg,In,-6.224,0.266,17.33,F-43m,0.0,0.001,-0.002,0.004,0.0,0.0
737650,MgMo2Pb,Mo,Mg,Pb,-6.245,0.491,17.934,F-43m,0.0,-0.001,0.004,-0.004,0.0,0.0
737649,MgSbMo2,Mo,Mg,Sb,-6.573,0.266,17.169,F-43m,0.0,0.0,0.0,0.0,0.0,0.0
737642,MgSiMo2,Mo,Mg,Si,-7.156,0.01,15.083,F-43m,0.0,0.0,0.0,0.0,0.0,0.0
737648,MgSnMo2,Mo,Mg,Sn,-6.631,0.157,17.211,F-43m,0.0,0.001,0.002,-0.001,0.0,0.0
737643,MgZnMo2,Mo,Mg,Zn,-5.882,0.244,15.824,F-43m,0.0,0.0,0.0,0.001,0.0,0.0
737655,MnAlMo2,Mo,Mn,Al,-8.647,-0.03,14.202,F-43m,0.0,0.494,-0.352,0.437,1.833,-0.017
448133,MnMo2As,Mo,Mn,As,-8.812,0.032,14.392,Fm-3m,0.0,0.45,-0.317,-0.317,2.34,0.043
449642,MnBMo2,Mo,Mn,B,-9.025,0.326,12.345,Fm-3m,0.0,0.265,-0.187,-0.187,1.376,0.032
449363,MnBiMo2,Mo,Mn,Bi,-8.14,0.55,16.916,Fm-3m,0.0,0.382,-0.572,-0.572,2.689,0.021
737658,MnGaMo2,Mo,Mn,Ga,-8.362,0.077,14.303,F-43m,0.0,0.494,-0.378,0.413,1.911,-0.024
737659,MnGeMo2,Mo,Mn,Ge,-8.733,0.104,14.474,F-43m,0.0,0.297,-0.253,0.241,1.207,-0.022
737661,MnInMo2,Mo,Mn,In,-8.012,0.349,15.725,F-43m,0.0,0.616,-0.403,0.273,2.637,-0.031
448515,MgMnMo2,Mo,Mn,Mg,-7.55,0.517,14.586,Fm-3m,0.0,0.0,-0.001,-0.001,0.002,0.0
448101,MnMo2Pb,Mo,Mn,Pb,-7.98,0.626,16.79,Fm-3m,0.0,0.44,-0.465,-0.465,2.675,0.018
448864,MnSbMo2,Mo,Mn,Sb,-8.517,0.193,16.003,Fm-3m,0.0,0.411,-0.468,-0.468,2.57,0.027
447993,MnSiMo2,Mo,Mn,Si,-9.124,-0.087,13.852,Fm-3m,0.0,0.393,-0.252,-0.252,2.017,0.03
737662,MnSnMo2,Mo,Mn,Sn,-8.417,0.242,15.657,F-43m,0.0,0.303,-0.288,0.2,1.321,-0.023
1122671,MnZnMo2,Mo,Mn,Zn,-7.795,0.203,14.72,F-43m,0.0,0.742,-0.444,0.523,2.822,-0.012
737489,AlNiMo2,Mo,Ni,Al,-7.789,-0.037,14.329,F-43m,0.0,0.079,0.156,-0.036,0.181,0.0
447735,NiMo2As,Mo,Ni,As,-7.927,0.052,14.078,Fm-3m,0.0,,0.0,0.0,0.0,0.0
449043,NiBMo2,Mo,Ni,B,-8.235,0.25,12.128,Fm-3m,0.0,,0.0,0.0,0.0,0.0
737499,NiBiMo2,Mo,Ni,Bi,-7.219,0.607,16.774,F-43m,0.0,0.159,0.476,-0.085,0.187,0.002
737492,GaNiMo2,Mo,Ni,Ga,-7.486,0.088,14.437,F-43m,0.0,0.014,0.03,-0.009,0.032,0.0
448116,NiGeMo2,Mo,Ni,Ge,-7.895,0.077,14.149,Fm-3m,0.0,,0.0,0.0,0.0,0.0
737495,InNiMo2,Mo,Ni,In,-7.179,0.317,15.644,F-43m,0.0,0.006,0.018,-0.008,0.013,0.0
449570,MgNiMo2,Mo,Ni,Mg,-6.609,0.592,14.746,Fm-3m,0.0,,0.0,0.0,0.0,0.0
737498,NiMo2Pb,Mo,Ni,Pb,-7.162,0.58,16.528,F-43m,0.0,0.234,0.575,-0.09,0.399,0.003
450008,NiSbMo2,Mo,Ni,Sb,-7.574,0.271,15.645,Fm-3m,0.0,,0.0,0.0,0.0,0.0
449914,SiNiMo2,Mo,Ni,Si,-8.252,-0.08,13.637,Fm-3m,0.0,,0.0,0.0,0.0,0.0
737496,NiSnMo2,Mo,Ni,Sn,-7.59,0.205,15.852,F-43m,0.0,0.157,0.348,-0.057,0.303,0.001
1122654,ZnNiMo2,Mo,Ni,Zn,-6.908,0.224,14.353,F-43m,0.0,0.001,-0.007,0.007,0.005,0.0
737558,AlMo2Pd,Mo,Pd,Al,-7.717,-0.062,15.369,F-43m,0.0,0.012,0.033,-0.009,0.01,0.0
449006,Mo2AsPd,Mo,Pd,As,-7.794,0.088,15.242,Fm-3m,0.0,,0.0,0.0,0.0,0.0
448941,BMo2Pd,Mo,Pd,B,-7.869,0.518,13.565,Fm-3m,0.0,,0.0,0.0,0.0,0.0
448110,BiMo2Pd,Mo,Pd,Bi,-7.214,0.514,17.473,Fm-3m,0.0,,0.0,0.0,0.0,0.0
737561,GaMo2Pd,Mo,Pd,Ga,-7.41,0.066,15.533,F-43m,0.0,0.013,0.041,-0.014,0.012,0.0
449719,GeMo2Pd,Mo,Pd,Ge,-7.759,0.116,15.375,Fm-3m,0.0,,0.0,0.0,0.0,0.0
737564,InMo2Pd,Mo,Pd,In,-7.16,0.239,16.838,F-43m,0.0,0.001,0.004,-0.002,0.001,0.0
447633,MgMo2Pd,Mo,Pd,Mg,-6.511,0.593,16.027,Fm-3m,0.0,,0.0,0.0,0.0,0.0
737567,Mo2PdPb,Mo,Pd,Pb,-7.137,0.508,17.613,F-43m,0.0,0.314,1.06,-0.168,0.219,0.008
447755,SbMo2Pd,Mo,Pd,Sb,-7.537,0.211,16.674,Fm-3m,0.0,,0.0,0.0,0.0,0.0
449001,SiMo2Pd,Mo,Pd,Si,-8.063,0.011,14.81,Fm-3m,0.0,,0.0,0.0,0.0,0.0
737565,SnMo2Pd,Mo,Pd,Sn,-7.531,0.165,16.894,F-43m,0.0,0.135,0.427,-0.063,0.117,0.003
748732,ZnMo2Pd,Mo,Pd,Zn,-6.865,0.17,15.38,F-43m,0.0,-0.002,0.004,-0.004,0.001,0.0
745477,AlMo2Pt,Mo,Pt,Al,-8.051,-0.177,15.404,F-43m,0.0,0.011,0.03,-0.006,0.009,0.0
449309,Mo2AsPt,Mo,Pt,As,-8.107,-0.006,15.423,Fm-3m,0.0,,0.0,0.0,0.0,0.0
449613,BMo2Pt,Mo,Pt,B,-8.128,0.48,13.906,Fm-3m,0.0,,0.0,0.0,0.0,0.0
450114,BiMo2Pt,Mo,Pt,Bi,-7.53,0.417,17.609,Fm-3m,0.0,,0.0,0.0,0.0,0.0
745480,GaMo2Pt,Mo,Pt,Ga,-7.694,0.002,15.553,F-43m,0.0,0.007,0.02,-0.003,0.006,0.0
448386,GeMo2Pt,Mo,Pt,Ge,-8.052,0.041,15.611,Fm-3m,0.0,,0.0,0.0,0.0,0.0
745483,InMo2Pt,Mo,Pt,In,-7.423,0.195,16.885,F-43m,0.0,0.086,0.299,-0.066,0.071,-0.001
449639,MgMo2Pt,Mo,Pt,Mg,-6.91,0.414,15.934,Fm-3m,0.0,,0.0,0.0,0.0,0.0
447941,Mo2PtPb,Mo,Pt,Pb,-7.368,0.496,17.358,Fm-3m,0.0,,0.0,0.0,0.0,0.0
448598,SbMo2Pt,Mo,Pt,Sb,-7.837,0.13,16.784,Fm-3m,0.0,,0.0,0.0,0.0,0.0
449504,SiMo2Pt,Mo,Pt,Si,-8.344,-0.049,15.12,Fm-3m,0.0,,0.0,0.0,0.0,0.0
745484,SnMo2Pt,Mo,Pt,Sn,-7.746,0.17,17.06,F-43m,0.0,0.385,1.204,-0.121,0.291,0.008
1122655,ZnMo2Pt,Mo,Pt,Zn,-7.202,0.053,15.377,F-43m,0.0,0.001,0.001,0.0,0.0,0.0
737586,AlMo2Rh,Mo,Rh,Al,-8.387,-0.209,15.023,F-43m,0.0,-0.005,-0.002,0.0,0.0,0.0
449825,Mo2AsRh,Mo,Rh,As,-8.342,0.062,15.051,Fm-3m,0.0,,0.0,0.0,0.0,0.0
737585,BMo2Rh,Mo,Rh,B,-8.465,0.445,13.416,F-43m,0.0,0.004,0.002,0.002,0.001,-0.001
737596,BiMo2Rh,Mo,Rh,Bi,-7.773,0.478,17.562,F-43m,0.0,0.494,1.462,-0.22,0.517,0.029
737589,GaMo2Rh,Mo,Rh,Ga,-8.067,-0.068,15.122,F-43m,0.0,-0.0,0.0,0.0,-0.001,0.0
737590,GeMo2Rh,Mo,Rh,Ge,-8.371,0.026,15.135,F-43m,0.0,0.123,0.345,-0.044,0.159,0.003
737592,InMo2Rh,Mo,Rh,In,-7.761,0.161,16.428,F-43m,0.0,0.001,0.001,-0.001,0.0,0.0
449941,MgMo2Rh,Mo,Rh,Mg,-7.139,0.488,15.578,Fm-3m,0.0,,0.0,0.0,0.0,0.0
737595,Mo2RhPb,Mo,Rh,Pb,-7.717,0.45,17.166,F-43m,0.0,0.249,0.853,-0.208,0.275,0.001
737594,SbMo2Rh,Mo,Rh,Sb,-8.086,0.185,16.576,F-43m,0.0,0.457,1.274,-0.145,0.526,0.019
737587,SiMo2Rh,Mo,Rh,Si,-8.72,-0.122,14.559,F-43m,0.0,0.067,0.17,-0.021,0.103,0.001
737593,SnMo2Rh,Mo,Rh,Sn,-8.141,0.079,16.5,F-43m,0.0,0.151,0.448,-0.081,0.202,-0.001
737588,ZnMo2Rh,Mo,Rh,Zn,-7.476,0.082,15.033,F-43m,0.0,0.003,-0.002,0.005,0.0,0.0
737503,AlMo2Ru,Mo,Ru,Al,-8.8,-0.139,14.965,F-43m,0.0,-0.002,0.0,0.001,0.0,0.0
737508,Mo2AsRu,Mo,Ru,As,-8.702,0.185,15.055,F-43m,0.0,0.182,0.563,-0.016,0.057,0.03
737502,BMo2Ru,Mo,Ru,B,-8.94,0.454,13.337,F-43m,0.0,0.001,0.003,-0.001,-0.001,0.0
737513,BiMo2Ru,Mo,Ru,Bi,-8.184,0.55,17.256,F-43m,0.0,0.234,0.829,-0.108,0.07,0.022
737506,GaMo2Ru,Mo,Ru,Ga,-8.482,0.0,15.06,F-43m,0.0,-0.0,0.0,-0.001,-0.001,0.0
737507,GeMo2Ru,Mo,Ru,Ge,-8.845,0.035,14.964,F-43m,0.0,0.003,0.001,0.002,0.002,0.0
737509,InMo2Ru,Mo,Ru,In,-8.139,0.266,16.391,F-43m,0.0,0.004,-0.004,0.009,0.004,0.0
447916,MgMo2Ru,Mo,Ru,Mg,-7.644,0.466,15.498,Fm-3m,0.0,,0.0,0.0,0.0,0.0
737512,Mo2RuPb,Mo,Ru,Pb,-8.12,0.531,16.992,F-43m,0.0,0.003,0.009,-0.005,0.001,0.0
737511,SbMo2Ru,Mo,Ru,Sb,-8.539,0.215,16.262,F-43m,0.0,0.149,0.511,-0.04,0.067,0.011
737504,SiMo2Ru,Mo,Ru,Si,-9.217,-0.136,14.435,F-43m,0.0,0.0,0.0,0.0,0.0,0.0
737510,SnMo2Ru,Mo,Ru,Sn,-8.571,0.132,16.367,F-43m,0.0,0.002,0.0,0.001,0.001,0.0
737505,ZnMo2Ru,Mo,Ru,Zn,-7.876,0.165,14.929,F-43m,0.0,0.001,0.0,0.003,0.002,0.0
488949,Nb2AlAg,Nb,Ag,Al,-6.496,0.193,17.327,Fm-3m,0.0,,0.0,0.0,0.0,0.0
487896,Nb2AgAs,Nb,Ag,As,-6.815,0.1,17.036,Fm-3m,0.0,,0.0,0.0,0.0,0.0
487228,Nb2AgB,Nb,Ag,B,-6.862,0.56,15.206,Fm-3m,0.0,,0.0,0.0,0.0,0.0
487677,Nb2AgBi,Nb,Ag,Bi,-6.311,0.451,19.414,Fm-3m,0.0,,0.0,0.0,0.0,0.0
487037,Nb2GaAg,Nb,Ag,Ga,-6.347,0.164,17.341,Fm-3m,0.0,,0.0,0.0,0.0,0.0
489183,Nb2AgGe,Nb,Ag,Ge,-6.79,0.119,17.221,Fm-3m,0.0,,0.0,0.0,0.0,0.0
488906,Nb2InAg,Nb,Ag,In,-6.071,0.362,18.63,Fm-3m,0.0,,0.0,0.0,0.0,0.0
487368,MgNb2Ag,Nb,Ag,Mg,-5.596,0.542,18.131,Fm-3m,0.0,,0.0,0.0,0.0,0.0
488442,Nb2AgPb,Nb,Ag,Pb,-6.201,0.477,19.21,Fm-3m,0.0,,0.0,0.0,0.0,0.0
488785,Nb2AgSb,Nb,Ag,Sb,-6.575,0.207,18.633,Fm-3m,0.0,,0.0,0.0,0.0,0.0
488499,Nb2SiAg,Nb,Ag,Si,-7.034,0.074,16.531,Fm-3m,0.0,,0.0,0.0,0.0,0.0
488167,Nb2AgSn,Nb,Ag,Sn,-6.524,0.207,18.599,Fm-3m,0.0,,0.0,0.0,0.0,0.0
488414,Nb2ZnAg,Nb,Ag,Zn,-5.73,0.339,17.166,Fm-3m,0.0,,0.0,0.0,0.0,0.0
487211,Nb2AlAu,Nb,Au,Al,-6.784,0.017,17.6,Fm-3m,0.0,,0.0,0.0,0.0,0.0
487044,Nb2AsAu,Nb,Au,As,-7.149,-0.123,17.203,Fm-3m,0.0,,0.0,0.0,0.0,0.0
489089,Nb2BAu,Nb,Au,B,-7.125,0.408,15.585,Fm-3m,0.0,,0.0,0.0,0.0,0.0
489013,Nb2BiAu,Nb,Au,Bi,-6.632,0.242,19.52,Fm-3m,0.0,,0.0,0.0,0.0,0.0
487609,Nb2GaAu,Nb,Au,Ga,-6.633,-0.011,17.51,Fm-3m,0.0,,0.0,0.0,0.0,0.0
487546,Nb2GeAu,Nb,Au,Ge,-7.087,-0.067,17.397,Fm-3m,0.0,,0.0,0.0,0.0,0.0
487188,Nb2InAu,Nb,Au,In,-6.362,0.182,18.683,Fm-3m,0.0,,0.0,0.0,0.0,0.0
1141253,MgNb2Au,Nb,Au,Mg,-6.027,0.204,18.098,F-43m,0.0,0.012,5.0,5.0,0.0,0.0
489005,Nb2PbAu,Nb,Au,Pb,-6.504,0.285,19.209,Fm-3m,0.0,,0.0,0.0,0.0,0.0
488191,Nb2SbAu,Nb,Au,Sb,-6.888,0.005,18.701,Fm-3m,0.0,,0.0,0.0,0.0,0.0
488735,Nb2SiAu,Nb,Au,Si,-7.316,-0.096,16.91,Fm-3m,0.0,,0.0,0.0,0.0,0.0
488283,Nb2SnAu,Nb,Au,Sn,-6.814,0.029,18.713,Fm-3m,0.0,,0.0,0.0,0.0,0.0
488162,Nb2ZnAu,Nb,Au,Zn,-6.035,0.145,17.358,Fm-3m,0.0,,0.0,0.0,0.0,0.0
488366,Nb2AlCd,Nb,Cd,Al,-5.996,0.212,17.859,Fm-3m,0.0,,0.0,0.0,0.0,0.0
488421,Nb2CdAs,Nb,Cd,As,-6.237,0.198,17.773,Fm-3m,0.0,,0.0,0.0,0.0,0.0
489009,Nb2CdB,Nb,Cd,B,-6.247,0.694,15.779,Fm-3m,0.0,,0.0,0.0,0.0,0.0
488428,Nb2CdBi,Nb,Cd,Bi,-5.809,0.473,20.32,Fm-3m,0.0,,0.0,0.0,0.0,0.0
487363,Nb2CdGa,Nb,Cd,Ga,-5.819,0.211,17.757,Fm-3m,0.0,,0.0,0.0,0.0,0.0
488315,Nb2CdGe,Nb,Cd,Ge,-6.205,0.223,17.827,Fm-3m,0.0,,0.0,0.0,0.0,0.0
487483,Nb2CdIn,Nb,Cd,In,-5.594,0.358,19.263,Fm-3m,0.0,,0.0,0.0,0.0,0.0
489396,MgNb2Cd,Nb,Cd,Mg,-5.159,0.499,18.812,Fm-3m,0.0,,0.0,0.0,0.0,0.0
488175,Nb2CdPb,Nb,Cd,Pb,-5.69,0.508,19.985,Fm-3m,0.0,,0.0,0.0,0.0,0.0
488632,Nb2CdSb,Nb,Cd,Sb,-6.041,0.26,19.374,Fm-3m,0.0,,0.0,0.0,0.0,0.0
487703,Nb2CdSi,Nb,Cd,Si,-6.434,0.195,17.174,Fm-3m,0.0,,0.0,0.0,0.0,0.0
488760,Nb2CdSn,Nb,Cd,Sn,-5.99,0.261,19.309,Fm-3m,0.0,,0.0,0.0,0.0,0.0
488897,Nb2ZnCd,Nb,Cd,Zn,-5.245,0.343,17.461,Fm-3m,0.0,,0.0,0.0,0.0,0.0
738015,Nb2AlCo,Nb,Co,Al,-7.725,0.03,15.595,F-43m,0.0,0.487,0.129,0.877,0.836,-0.003
488265,Nb2CoAs,Nb,Co,As,-8.056,-0.074,15.414,Fm-3m,0.0,-0.017,-0.009,-0.009,-0.093,-0.002