id,formula,X,Y,Z,energy,formation,volume,spacegroup,band_gap,tot_mag,X1_mag,X2_mag,Y_mag,Z_mag
734831,Zn2CuBi,Zn,Cu,Bi,-2.299,0.273,18.909,F-43m,0.0,,0.0,0.0,0.0,0.0
732655,Zn2GaCu,Zn,Cu,Ga,-2.247,0.073,14.603,F-43m,0.0,,0.0,0.0,0.0,0.0
734825,Zn2CuGe,Zn,Cu,Ge,-2.537,0.181,15.335,F-43m,0.0,,0.0,0.0,0.0,0.0
734827,Zn2InCu,Zn,Cu,In,-2.089,0.153,16.386,F-43m,0.0,,0.0,0.0,0.0,0.0
710945,MgZn2Cu,Zn,Cu,Mg,-2.013,-0.065,14.569,F-43m,0.0,,0.0,0.0,0.0,0.0
734830,Zn2CuPb,Zn,Cu,Pb,-2.205,0.283,18.412,F-43m,0.0,,0.0,0.0,0.0,0.0
734829,Zn2CuSb,Zn,Cu,Sb,-2.368,0.223,17.739,F-43m,0.0,,0.0,0.0,0.0,0.0
734823,Zn2CuSi,Zn,Cu,Si,-2.68,0.238,14.222,F-43m,0.0,,0.0,0.0,0.0,0.0
734828,Zn2CuSn,Zn,Cu,Sn,-2.374,0.167,17.333,F-43m,0.0,,0.0,0.0,0.0,0.0
734770,AlZn2Fe,Zn,Fe,Al,-3.599,0.048,13.02,F-43m,0.0,0.365,-0.014,-0.02,1.525,-0.027
734774,Zn2FeAs,Zn,Fe,As,-3.559,0.314,14.021,F-43m,0.0,0.565,0.001,0.003,2.206,0.011
732603,Zn2FeB,Zn,Fe,B,-3.819,0.561,10.902,F-43m,0.0,0.362,-0.012,-0.006,1.478,-0.026
715998,Zn2FeBi,Zn,Fe,Bi,-3.242,0.478,18.539,F-43m,0.0,0.683,-0.006,0.014,2.646,-0.009
734772,Zn2GaFe,Zn,Fe,Ga,-3.341,0.127,13.201,F-43m,0.0,0.428,-0.024,-0.016,1.751,-0.041
715992,Zn2FeGe,Zn,Fe,Ge,-3.61,0.256,13.919,F-43m,0.0,0.396,-0.026,-0.015,1.663,-0.026
734775,Zn2InFe,Zn,Fe,In,-3.113,0.277,15.035,F-43m,0.0,0.484,-0.034,-0.013,1.98,-0.044
701923,MgZn2Fe,Zn,Fe,Mg,-2.984,0.111,13.8,Fm-3m,0.0,0.528,-0.037,-0.037,2.219,-0.013
734778,Zn2FePb,Zn,Fe,Pb,-3.146,0.49,17.971,F-43m,0.0,0.627,-0.022,0.008,2.522,-0.029
732612,Zn2FeSb,Zn,Fe,Sb,-3.332,0.408,15.728,F-43m,0.0,0.443,0.0,-0.017,1.849,-0.019
734771,Zn2FeSi,Zn,Fe,Si,-3.874,0.192,12.513,F-43m,0.0,0.265,-0.003,-0.013,1.091,-0.015
734776,Zn2FeSn,Zn,Fe,Sn,-3.371,0.317,15.168,F-43m,0.0,0.372,-0.022,-0.007,1.54,-0.028
744224,AlZn2Ir,Zn,Ir,Al,-4.057,-0.274,14.186,F-43m,0.0,-0.0,0.0,0.0,0.0,0.0
744228,Zn2AsIr,Zn,Ir,As,-3.892,0.117,15.118,F-43m,0.0,-0.0,0.0,0.0,0.0,0.0
744223,Zn2BIr,Zn,Ir,B,-4.053,0.463,12.302,F-43m,0.0,0.0,0.0,0.0,0.0,0.0
484000,Zn2BiIr,Zn,Ir,Bi,-3.564,0.292,17.894,Fm-3m,0.0,,0.0,0.0,0.0,0.0
744226,Zn2GaIr,Zn,Ir,Ga,-3.711,-0.106,14.424,F-43m,0.0,0.0,0.0,0.0,0.0,0.0
744227,Zn2GeIr,Zn,Ir,Ge,-3.956,0.046,14.949,F-43m,0.0,0.0,0.0,0.0,0.0,0.0
744229,Zn2InIr,Zn,Ir,In,-3.498,0.029,16.067,F-43m,0.0,-0.0,0.0,0.0,0.0,0.0
744232,Zn2IrPb,Zn,Ir,Pb,-3.48,0.293,17.857,F-43m,0.0,-0.001,0.0,0.0,0.001,0.0
744231,Zn2SbIr,Zn,Ir,Sb,-3.721,0.155,16.854,F-43m,0.0,-0.001,0.0,0.0,0.0,0.0
744230,Zn2SnIr,Zn,Ir,Sn,-3.763,0.063,16.557,F-43m,0.0,0.001,0.0,0.0,0.0,0.0
484183,LiAlZn2,Zn,Li,Al,-2.177,-0.134,14.529,Fm-3m,0.0,,0.0,0.0,0.0,0.0
734748,LiZn2As,Zn,Li,As,-2.4,-0.13,16.152,F-43m,0.386,,0.0,0.0,0.0,0.0
482357,LiZn2B,Zn,Li,B,-2.481,0.296,11.133,Fm-3m,0.0,,0.0,0.0,0.0,0.0
734753,LiZn2Bi,Zn,Li,Bi,-2.162,-0.045,19.8,F-43m,0.393,,0.0,0.0,0.0,0.0
715980,LiZn2Ge,Zn,Li,Ge,-2.334,-0.071,15.606,F-43m,0.0,,0.0,0.0,0.0,0.0
734691,LiMgZn2,Zn,Li,Mg,-1.655,-0.162,15.285,F-43m,0.0,,0.0,0.0,0.0,0.0
734752,LiZn2Pb,Zn,Li,Pb,-2.042,-0.008,18.884,F-43m,0.0,,0.0,0.0,0.0,0.0
734751,LiZn2Sb,Zn,Li,Sb,-2.216,-0.079,18.67,F-43m,0.0,,0.0,0.0,0.0,0.0
732599,LiZn2Sn,Zn,Li,Sn,-2.181,-0.095,17.682,F-43m,0.0,,0.0,0.0,0.0,0.0
483810,MgAlZn2,Zn,Mg,Al,-1.943,0.012,16.357,Fm-3m,0.0,,0.0,0.0,0.0,0.0
734698,MgZn2As,Zn,Mg,As,-2.168,0.014,18.3,F-43m,0.0,,0.0,0.0,0.0,0.0
734693,MgZn2B,Zn,Mg,B,-2.123,0.566,13.727,F-43m,0.0,,0.0,0.0,0.0,0.0
734703,MgZn2Bi,Zn,Mg,Bi,-1.93,0.098,21.852,F-43m,0.0,,0.0,0.0,0.0,0.0
734696,MgZn2Ga,Zn,Mg,Ga,-1.768,0.009,17.187,F-43m,0.0,,0.0,0.0,0.0,0.0
734697,MgZn2Ge,Zn,Mg,Ge,-2.113,0.062,17.7,F-43m,0.0,,0.0,0.0,0.0,0.0
483651,MgZn2In,Zn,Mg,In,-1.657,0.041,18.706,Fm-3m,0.0,,0.0,0.0,0.0,0.0
481877,MgZn2Pb,Zn,Mg,Pb,-1.825,0.12,20.664,Fm-3m,0.0,,0.0,0.0,0.0,0.0
734701,MgZn2Sb,Zn,Mg,Sb,-1.984,0.064,20.6,F-43m,0.0,,0.0,0.0,0.0,0.0
734695,MgZn2Si,Zn,Mg,Si,-2.209,0.166,16.557,F-43m,0.0,,0.0,0.0,0.0,0.0
483741,MgZn2Sn,Zn,Mg,Sn,-1.968,0.029,19.439,Fm-3m,0.0,,0.0,0.0,0.0,0.0
734732,MnAlZn2,Zn,Mn,Al,-3.772,0.054,14.01,F-43m,0.0,0.746,-0.028,-0.022,2.94,-0.046
715969,MnZn2As,Zn,Mn,As,-3.84,0.212,15.813,F-43m,0.0,0.912,-0.009,-0.017,3.496,-0.015
734731,MnZn2B,Zn,Mn,B,-4.016,0.543,11.843,F-43m,0.0,0.784,-0.014,-0.012,3.038,-0.035
734741,MnZn2Bi,Zn,Mn,Bi,-3.523,0.376,19.603,F-43m,0.0,0.988,-0.014,0.002,3.746,-0.037
715967,MnZn2Ga,Zn,Mn,Ga,-3.56,0.088,14.39,F-43m,0.0,0.806,-0.04,-0.016,3.163,-0.051
732584,MnZn2Ge,Zn,Mn,Ge,-3.821,0.224,15.362,F-43m,0.0,0.826,-0.014,-0.037,3.266,-0.046
734737,MnZn2In,Zn,Mn,In,-3.353,0.217,16.245,F-43m,0.0,0.833,-0.051,-0.014,3.283,-0.061
730206,MgMnZn2,Zn,Mn,Mg,-3.278,-0.002,15.006,Fm-3m,0.0,0.843,-0.05,-0.05,3.392,-0.023
734740,MnZn2Pb,Zn,Mn,Pb,-3.429,0.387,19.04,F-43m,0.0,1.016,-0.007,0.025,3.789,-0.017
734739,MnZn2Sb,Zn,Mn,Sb,-3.62,0.299,18.052,F-43m,0.0,0.934,-0.009,0.005,3.568,-0.029
732581,MnZn2Si,Zn,Mn,Si,-4.04,0.206,13.303,F-43m,0.0,0.591,-0.027,-0.021,2.389,-0.053
732587,MnZn2Sn,Zn,Mn,Sn,-3.618,0.251,17.468,F-43m,0.0,0.908,0.014,-0.024,3.477,-0.04
734681,AlZn2Ni,Zn,Ni,Al,-3.139,-0.178,13.127,F-43m,0.0,0.0,0.0,0.0,0.0,0.0
734685,Zn2NiAs,Zn,Ni,As,-3.075,0.112,14.565,F-43m,0.0,-0.0,0.0,0.0,-0.001,0.0
734680,Zn2NiB,Zn,Ni,B,-3.295,0.4,11.086,F-43m,0.0,0.0,0.0,0.0,0.001,0.0
734690,Zn2NiBi,Zn,Ni,Bi,-2.773,0.261,17.809,F-43m,0.0,-0.001,0.0,0.0,-0.004,0.0
734683,Zn2GaNi,Zn,Ni,Ga,-2.875,-0.093,13.392,F-43m,0.0,-0.0,0.0,0.0,0.0,0.0
734684,Zn2NiGe,Zn,Ni,Ge,-3.111,0.07,14.185,F-43m,0.0,0.0,0.0,0.0,0.0,0.0
734686,Zn2InNi,Zn,Ni,In,-2.676,0.029,15.183,F-43m,0.0,0.0,0.0,0.0,0.0,0.0
730050,MgZn2Ni,Zn,Ni,Mg,-2.562,-0.152,13.899,Fm-3m,0.0,0.001,0.0,0.0,0.004,0.0
734689,Zn2NiPb,Zn,Ni,Pb,-2.689,0.262,17.268,F-43m,0.0,-0.001,0.0,0.0,-0.003,0.0
715924,Zn2NiSb,Zn,Ni,Sb,-2.877,0.177,16.508,F-43m,0.0,-0.0,0.0,0.0,0.0,0.0
734682,Zn2SiNi,Zn,Ni,Si,-3.32,0.06,13.065,F-43m,0.0,0.0,0.0,0.0,0.0,0.0
715923,Zn2NiSn,Zn,Ni,Sn,-2.912,0.091,15.954,F-43m,0.0,-0.001,0.0,0.0,-0.001,0.0
736775,AlZn2Pd,Zn,Pd,Al,-3.196,-0.332,14.576,F-43m,0.0,,0.0,0.0,0.0,0.0
483161,Zn2AsPd,Zn,Pd,As,-3.165,-0.075,15.644,Fm-3m,0.0,,0.0,0.0,0.0,0.0
736774,Zn2BPd,Zn,Pd,B,-3.229,0.367,12.615,F-43m,0.0,,0.0,0.0,0.0,0.0
736784,Zn2BiPd,Zn,Pd,Bi,-2.913,0.024,19.086,F-43m,0.0,,0.0,0.0,0.0,0.0
736777,Zn2GaPd,Zn,Pd,Ga,-2.926,-0.241,14.929,F-43m,0.0,,0.0,0.0,0.0,0.0
483877,Zn2GePd,Zn,Pd,Ge,-3.176,-0.093,15.631,Fm-3m,0.0,,0.0,0.0,0.0,0.0
736780,Zn2InPd,Zn,Pd,In,-2.781,-0.174,16.655,F-43m,0.0,,0.0,0.0,0.0,0.0
736783,Zn2PdPb,Zn,Pd,Pb,-2.835,0.019,18.855,F-43m,0.0,,0.0,0.0,0.0,0.0
736782,Zn2SbPd,Zn,Pd,Sb,-2.988,-0.031,18.021,F-43m,0.0,,0.0,0.0,0.0,0.0
736776,Zn2SiPd,Zn,Pd,Si,-3.34,-0.056,14.719,F-43m,0.0,,0.0,0.0,0.0,0.0
736781,Zn2SnPd,Zn,Pd,Sn,-3.021,-0.115,17.532,F-43m,0.0,,0.0,0.0,0.0,0.0
744641,AlZn2Pt,Zn,Pt,Al,-3.469,-0.385,14.624,F-43m,0.0,0.0,0.0,0.0,0.0,0.0
483471,Zn2AsPt,Zn,Pt,As,-3.369,-0.059,15.772,Fm-3m,0.0,,0.0,0.0,0.0,0.0
744640,Zn2BPt,Zn,Pt,B,-3.449,0.367,12.81,F-43m,0.0,0.0,0.0,0.0,0.0,0.0
484271,Zn2BiPt,Zn,Pt,Bi,-3.107,0.049,18.412,Fm-3m,0.0,,0.0,0.0,0.0,0.0
744643,Zn2GaPt,Zn,Pt,Ga,-3.15,-0.245,15.002,F-43m,0.0,-0.0,0.0,0.0,0.0,0.0
482546,Zn2GePt,Zn,Pt,Ge,-3.391,-0.088,15.765,Fm-3m,0.0,,0.0,0.0,0.0,0.0
744646,Zn2InPt,Zn,Pt,In,-2.983,-0.156,16.566,F-43m,0.0,-0.0,0.0,0.0,0.0,0.0
482096,Zn2PtPb,Zn,Pt,Pb,-3.049,0.024,18.182,Fm-3m,0.0,,0.0,0.0,0.0,0.0
744648,Zn2SbPt,Zn,Pt,Sb,-3.17,0.006,17.839,F-43m,0.0,-0.0,0.0,0.0,0.0,0.0
744642,Zn2SiPt,Zn,Pt,Si,-3.582,-0.079,14.624,F-43m,0.0,-0.0,0.0,0.0,0.0,0.0
744647,Zn2SnPt,Zn,Pt,Sn,-3.227,-0.101,17.514,F-43m,0.0,-0.0,0.0,0.0,0.0,0.0
736788,AlZn2Rh,Zn,Rh,Al,-3.744,-0.358,14.065,F-43m,0.0,-0.001,0.0,0.0,0.001,0.0
736792,Zn2AsRh,Zn,Rh,As,-3.645,-0.032,15.05,F-43m,0.0,-0.001,0.0,0.0,0.0,0.0
736787,Zn2BRh,Zn,Rh,B,-3.783,0.337,12.077,F-43m,0.0,0.001,0.0,0.0,0.001,0.0
736797,Zn2BiRh,Zn,Rh,Bi,-3.342,0.119,18.091,F-43m,0.0,0.001,0.0,0.0,0.001,0.0
736790,Zn2GaRh,Zn,Rh,Ga,-3.44,-0.232,14.279,F-43m,0.0,0.0,0.0,0.0,0.0,0.0
736791,Zn2GeRh,Zn,Rh,Ge,-3.701,-0.095,15.031,F-43m,0.0,0.0,0.0,0.0,0.0,0.0
736793,Zn2InRh,Zn,Rh,In,-3.254,-0.123,16.009,F-43m,0.0,0.0,0.0,0.0,0.0,0.0
484097,MgZn2Rh,Zn,Rh,Mg,-3.176,-0.34,14.669,Fm-3m,0.0,,0.0,0.0,0.0,0.0
736796,Zn2RhPb,Zn,Rh,Pb,-3.268,0.108,17.67,F-43m,0.0,0.0,0.0,0.0,0.0,0.0
736795,Zn2SbRh,Zn,Rh,Sb,-3.479,0.001,16.798,F-43m,0.0,-0.0,0.0,0.0,0.0,0.0
736789,Zn2SiRh,Zn,Rh,Si,-3.928,-0.121,13.807,F-43m,0.0,0.0,0.0,0.0,0.0,0.0
736794,Zn2SnRh,Zn,Rh,Sn,-3.523,-0.094,16.431,F-43m,0.0,0.0,0.0,0.0,0.0,0.0
736749,AlZn2Ru,Zn,Ru,Al,-4.009,-0.139,13.987,F-43m,0.0,0.002,0.0,0.0,0.002,0.0
736753,Zn2AsRu,Zn,Ru,As,-3.905,0.192,14.902,F-43m,0.0,0.001,0.0,0.0,0.002,0.0
736748,Zn2BRu,Zn,Ru,B,-4.113,0.49,11.976,F-43m,0.0,0.001,0.0,0.0,0.002,0.0
736758,Zn2BiRu,Zn,Ru,Bi,-3.555,0.388,17.863,F-43m,0.0,-0.001,0.0,0.0,-0.003,0.0
736751,Zn2GaRu,Zn,Ru,Ga,-3.705,-0.014,14.18,F-43m,0.0,0.001,0.0,0.0,0.001,0.0
736752,Zn2GeRu,Zn,Ru,Ge,-3.947,0.143,14.496,F-43m,0.0,0.001,0.0,0.0,0.002,0.0
736754,Zn2InRu,Zn,Ru,In,-3.474,0.139,15.925,F-43m,0.0,-0.003,0.0,0.0,-0.006,0.0
482072,MgZn2Ru,Zn,Ru,Mg,-3.416,-0.097,14.615,Fm-3m,0.0,,0.0,0.0,0.0,0.0
736757,Zn2RuPb,Zn,Ru,Pb,-3.442,0.417,17.394,F-43m,0.0,0.031,0.001,0.004,0.092,0.003
736756,Zn2SbRu,Zn,Ru,Sb,-3.724,0.239,16.574,F-43m,0.0,0.003,0.0,0.0,0.004,0.0
736750,Zn2SiRu,Zn,Ru,Si,-4.228,0.062,13.595,F-43m,0.0,0.003,0.0,0.0,0.004,0.0
736755,Zn2SnRu,Zn,Ru,Sn,-3.753,0.159,16.181,F-43m,0.0,0.0,0.0,0.0,0.0,0.0
557967,Zr2AlAg,Zr,Ag,Al,-6.121,-0.205,19.756,Fm-3m,0.0,,0.0,0.0,0.0,0.0
556910,Zr2AgAs,Zr,Ag,As,-6.507,-0.365,19.302,Fm-3m,0.0,,0.0,0.0,0.0,0.0
556246,Zr2AgB,Zr,Ag,B,-6.463,0.186,17.306,Fm-3m,0.0,,0.0,0.0,0.0,0.0
556695,Zr2AgBi,Zr,Ag,Bi,-6.067,-0.079,21.862,Fm-3m,0.0,,0.0,0.0,0.0,0.0
556056,Zr2GaAg,Zr,Ag,Ga,-6.022,-0.285,19.704,Fm-3m,0.0,,0.0,0.0,0.0,0.0
558199,Zr2AgGe,Zr,Ag,Ge,-6.446,-0.311,19.583,Fm-3m,0.0,,0.0,0.0,0.0,0.0
557923,Zr2InAg,Zr,Ag,In,-5.813,-0.154,20.982,Fm-3m,0.0,,0.0,0.0,0.0,0.0
557450,Zr2AgPb,Zr,Ag,Pb,-5.96,-0.055,21.621,Fm-3m,0.0,,0.0,0.0,0.0,0.0
557802,Zr2AgSb,Zr,Ag,Sb,-6.277,-0.269,21.016,Fm-3m,0.0,,0.0,0.0,0.0,0.0
557505,Zr2SiAg,Zr,Ag,Si,-6.626,-0.291,18.825,Fm-3m,0.0,,0.0,0.0,0.0,0.0
557181,Zr2AgSn,Zr,Ag,Sn,-6.223,-0.265,20.982,Fm-3m,0.0,,0.0,0.0,0.0,0.0
557422,Zr2ZnAg,Zr,Ag,Zn,-5.393,-0.097,19.526,Fm-3m,0.0,,0.0,0.0,0.0,0.0
556229,Zr2AlAu,Zr,Au,Al,-6.407,-0.38,19.962,Fm-3m,0.0,,0.0,0.0,0.0,0.0
556063,Zr2AsAu,Zr,Au,As,-6.84,-0.587,19.279,Fm-3m,0.0,,0.0,0.0,0.0,0.0
558104,Zr2BAu,Zr,Au,B,-6.748,0.008,17.631,Fm-3m,0.0,-0.0,5.0,5.0,0.0,0.0
558031,Zr2BiAu,Zr,Au,Bi,-6.383,-0.283,21.885,Fm-3m,0.0,,0.0,0.0,0.0,0.0
556627,Zr2GaAu,Zr,Au,Ga,-6.313,-0.466,19.859,Fm-3m,0.0,-0.0,5.0,5.0,0.0,0.0
556564,Zr2GeAu,Zr,Au,Ge,-6.739,-0.493,19.713,Fm-3m,0.0,,0.0,0.0,0.0,0.0
556204,Zr2InAu,Zr,Au,In,-6.101,-0.33,20.953,Fm-3m,0.0,,0.0,0.0,0.0,0.0
558023,Zr2PbAu,Zr,Au,Pb,-6.253,-0.237,21.49,Fm-3m,0.0,,0.0,0.0,0.0,0.0
557204,Zr2SbAu,Zr,Au,Sb,-6.584,-0.464,20.989,Fm-3m,0.0,,0.0,0.0,0.0,0.0
557752,Zr2SiAu,Zr,Au,Si,-6.906,-0.459,19.214,Fm-3m,0.0,,0.0,0.0,0.0,0.0
557293,Zr2SnAu,Zr,Au,Sn,-6.503,-0.434,21.08,Fm-3m,0.0,,0.0,0.0,0.0,0.0
557176,Zr2ZnAu,Zr,Au,Zn,-5.73,-0.323,19.65,Fm-3m,0.0,0.235,0.262,0.262,0.082,0.035
557376,Zr2AlCd,Zr,Cd,Al,-5.623,-0.188,20.313,Fm-3m,0.0,,0.0,0.0,0.0,0.0
557429,Zr2CdAs,Zr,Cd,As,-5.943,-0.282,20.143,Fm-3m,0.0,,0.0,0.0,0.0,0.0
558027,Zr2CdB,Zr,Cd,B,-5.849,0.319,18.007,Fm-3m,0.0,,0.0,0.0,0.0,0.0
557436,Zr2CdBi,Zr,Cd,Bi,-5.559,-0.051,22.996,Fm-3m,0.0,,0.0,0.0,0.0,0.0
556383,Zr2CdGa,Zr,Cd,Ga,-5.489,-0.232,20.151,Fm-3m,0.0,,0.0,0.0,0.0,0.0
557324,Zr2CdGe,Zr,Cd,Ge,-5.867,-0.213,20.227,Fm-3m,0.0,,0.0,0.0,0.0,0.0
556501,Zr2CdIn,Zr,Cd,In,-5.317,-0.138,21.742,Fm-3m,0.0,,0.0,0.0,0.0,0.0
557189,Zr2CdPb,Zr,Cd,Pb,-5.435,-0.01,22.545,Fm-3m,0.0,,0.0,0.0,0.0,0.0
557643,Zr2CdSb,Zr,Cd,Sb,-5.746,-0.218,21.957,Fm-3m,0.0,,0.0,0.0,0.0,0.0
556720,Zr2CdSi,Zr,Cd,Si,-6.043,-0.188,19.504,Fm-3m,0.0,,0.0,0.0,0.0,0.0
557777,Zr2CdSn,Zr,Cd,Sn,-5.685,-0.207,21.817,Fm-3m,0.0,,0.0,0.0,0.0,0.0
557914,Zr2ZnCd,Zr,Cd,Zn,-4.955,-0.14,19.813,Fm-3m,0.0,,0.0,0.0,0.0,0.0
556951,Zr2AlCo,Zr,Co,Al,-7.181,-0.199,17.817,Fm-3m,0.0,,0.0,0.0,0.0,0.0
555976,Zr2CoB,Zr,Co,B,-7.724,-0.008,15.168,Fm-3m,0.0,,0.0,0.0,0.0,0.0
556509,Zr2CoBi,Zr,Co,Bi,-6.986,0.07,20.303,Fm-3m,0.0,-0.009,-0.004,-0.004,-0.055,-0.001
556908,Zr2GaCo,Zr,Co,Ga,-7.144,-0.34,17.609,Fm-3m,0.0,0.488,0.127,0.127,1.511,0.073
557491,MgZr2Co,Zr,Co,Mg,-6.375,0.057,18.295,Fm-3m,0.0,0.002,0.001,0.001,-0.005,0.0
557911,Zr2CoPb,Zr,Co,Pb,-6.89,0.082,20.105,Fm-3m,0.0,-0.0,-0.002,-0.002,-0.02,-0.001
558283,Zr2CoSb,Zr,Co,Sb,-7.228,-0.153,19.384,Fm-3m,0.0,0.019,-0.001,0.0,0.205,0.005
557045,Zr2CoSn,Zr,Co,Sn,-7.178,-0.153,19.386,Fm-3m,0.0,0.003,0.001,0.001,0.038,0.002
556212,Zr2ZnCo,Zr,Co,Zn,-6.561,-0.198,17.23,Fm-3m,0.0,,0.0,0.0,0.0,0.0
556698,Zr2AlCu,Zr,Cu,Al,-6.399,-0.26,18.342,Fm-3m,0.0,,0.0,0.0,0.0,0.0
556610,Zr2CuAs,Zr,Cu,As,-6.79,-0.424,17.987,Fm-3m,0.0,,0.0,0.0,0.0,0.0
557295,Zr2CuB,Zr,Cu,B,-6.899,-0.027,15.628,Fm-3m,0.0,,0.0,0.0,0.0,0.0
695946,Zr2CuBi,Zr,Cu,Bi,-6.251,-0.039,21.02,Fm-3m,0.0,0.007,0.007,0.007,0.001,0.001
557562,Zr2GaCu,Zr,Cu,Ga,-6.309,-0.349,18.072,Fm-3m,0.0,,0.0,0.0,0.0,0.0
556519,Zr2CuGe,Zr,Cu,Ge,-6.727,-0.369,18.121,Fm-3m,0.0,,0.0,0.0,0.0,0.0
558125,Zr2InCu,Zr,Cu,In,-6.035,-0.152,19.92,Fm-3m,0.0,,0.0,0.0,0.0,0.0
557365,MgZr2Cu,Zr,Cu,Mg,-5.521,0.067,19.173,Fm-3m,0.0,,0.0,0.0,0.0,0.0
557424,Zr2CuPb,Zr,Cu,Pb,-6.153,-0.024,20.719,Fm-3m,0.0,,0.0,0.0,0.0,0.0
556281,Zr2CuSb,Zr,Cu,Sb,-6.489,-0.257,19.944,Fm-3m,0.0,,0.0,0.0,0.0,0.0
557731,Zr2CuSi,Zr,Cu,Si,-6.933,-0.375,17.557,Fm-3m,0.0,,0.0,0.0,0.0,0.0
557458,Zr2CuSn,Zr,Cu,Sn,-6.435,-0.254,19.965,Fm-3m,0.0,,0.0,0.0,0.0,0.0
557762,Zr2ZnCu,Zr,Cu,Zn,-5.693,-0.174,17.839,Fm-3m,0.0,,0.0,0.0,0.0,0.0
556072,Zr2AlFe,Zr,Fe,Al,-7.44,-0.153,17.718,Fm-3m,0.0,-0.003,-0.001,-0.001,-0.033,-0.001
557842,Zr2FeAs,Zr,Fe,As,-7.852,-0.338,17.751,Fm-3m,0.0,0.524,-0.056,-0.056,2.128,0.053
556642,Zr2FeB,Zr,Fe,B,-7.992,0.028,15.399,Fm-3m,0.0,0.288,-0.22,-0.221,1.566,0.1
557826,Zr2FeBi,Zr,Fe,Bi,-7.168,0.192,20.307,Fm-3m,0.0,-0.003,-0.001,-0.001,-0.018,-0.001
557305,Zr2GaFe,Zr,Fe,Ga,-7.332,-0.224,17.601,Fm-3m,0.0,0.002,0.0,0.0,0.016,0.0
557506,Zr2FeGe,Zr,Fe,Ge,-7.837,-0.331,17.924,Fm-3m,0.0,0.503,-0.08,-0.08,2.126,0.053
557645,Zr2InFe,Zr,Fe,In,-7.152,-0.075,20.722,Fm-3m,0.0,0.333,5.0,5.0,5.0,0.0
556544,MgZr2Fe,Zr,Fe,Mg,-6.66,0.077,18.504,Fm-3m,0.0,0.063,-0.237,-0.237,1.026,-0.005
556270,Zr2FePb,Zr,Fe,Pb,-7.352,0.183,22.163,Fm-3m,0.0,0.599,5.0,5.0,5.0,0.0
556253,Zr2FeSb,Zr,Fe,Sb,-7.575,-0.195,19.634,Fm-3m,0.0,0.546,-0.064,-0.064,2.279,0.044
557193,Zr2FeSi,Zr,Fe,Si,-8.049,-0.342,17.278,Fm-3m,0.0,0.504,-0.067,-0.067,2.093,0.049
557633,Zr2FeSn,Zr,Fe,Sn,-7.388,-0.059,19.373,Fm-3m,0.0,-0.0,-0.001,-0.001,0.009,0.0
556303,Zr2ZnFe,Zr,Fe,Zn,-6.817,-0.15,17.166,Fm-3m,0.0,0.003,-0.007,-0.007,0.035,0.0
557209,Zr2AlIr,Zr,Ir,Al,-7.893,-0.469,18.785,Fm-3m,0.0,,0.0,0.0,0.0,0.0
558308,Zr2AsIr,Zr,Ir,As,-8.231,-0.581,18.673,Fm-3m,0.0,,0.0,0.0,0.0,0.0
558168,Zr2BIr,Zr,Ir,B,-8.269,-0.113,16.691,Fm-3m,0.0,,0.0,0.0,0.0,0.0
558128,Zr2BiIr,Zr,Ir,Bi,-7.707,-0.21,21.035,Fm-3m,0.0,,0.0,0.0,0.0,0.0
556867,Zr2GaIr,Zr,Ir,Ga,-7.781,-0.535,18.672,Fm-3m,0.0,,0.0,0.0,0.0,0.0
556600,Zr2GeIr,Zr,Ir,Ge,-8.153,-0.509,18.744,Fm-3m,0.0,,0.0,0.0,0.0,0.0
558215,Zr2InIr,Zr,Ir,In,-7.513,-0.345,19.993,Fm-3m,0.0,,0.0,0.0,0.0,0.0
557248,MgZr2Ir,Zr,Ir,Mg,-7.203,-0.33,19.231,Fm-3m,0.0,,0.0,0.0,0.0,0.0
556608,Zr2IrPb,Zr,Ir,Pb,-7.601,-0.187,20.689,Fm-3m,0.0,,0.0,0.0,0.0,0.0
556560,Zr2SbIr,Zr,Ir,Sb,-7.913,-0.397,20.248,Fm-3m,0.0,,0.0,0.0,0.0,0.0
557676,Zr2SiIr,Zr,Ir,Si,-8.333,-0.49,18.315,Fm-3m,0.0,,0.0,0.0,0.0,0.0
557036,Zr2SnIr,Zr,Ir,Sn,-7.86,-0.394,20.183,Fm-3m,0.0,,0.0,0.0,0.0,0.0
557017,Zr2ZnIr,Zr,Ir,Zn,-7.308,-0.504,18.37,Fm-3m,0.0,,0.0,0.0,0.0,0.0
558313,LiZr2Al,Zr,Li,Al,-5.85,-0.166,18.96,Fm-3m,0.0,,0.0,0.0,0.0,0.0
556425,LiZr2As,Zr,Li,As,-6.233,-0.322,18.112,Fm-3m,0.0,,0.0,0.0,0.0,0.0
556487,LiZr2B,Zr,Li,B,-6.334,0.083,15.209,Fm-3m,0.0,,0.0,0.0,0.0,0.0
558307,LiZr2Bi,Zr,Li,Bi,-5.761,-0.004,21.71,Fm-3m,0.0,,0.0,0.0,0.0,0.0
556637,LiZr2Ga,Zr,Li,Ga,-5.749,-0.244,18.502,Fm-3m,0.0,,0.0,0.0,0.0,0.0
557053,LiZr2Ge,Zr,Li,Ge,-6.208,-0.305,18.259,Fm-3m,0.0,,0.0,0.0,0.0,0.0
557816,LiZr2In,Zr,Li,In,-5.506,-0.078,20.782,Fm-3m,0.0,,0.0,0.0,0.0,0.0
557936,LiMgZr2,Zr,Li,Mg,-4.92,0.213,20.363,Fm-3m,0.0,,0.0,0.0,0.0,0.0
556876,LiZr2Pb,Zr,Li,Pb,-5.668,0.006,21.404,Fm-3m,0.0,,0.0,0.0,0.0,0.0
557118,LiZr2Sb,Zr,Li,Sb,-6.006,-0.228,20.377,Fm-3m,0.0,,0.0,0.0,0.0,0.0
558279,LiZr2Si,Zr,Li,Si,-6.43,-0.326,17.669,Fm-3m,0.0,,0.0,0.0,0.0,0.0
556478,LiZr2Sn,Zr,Li,Sn,-5.96,-0.233,20.674,Fm-3m,0.0,,0.0,0.0,0.0,0.0
557384,LiZr2Zn,Zr,Li,Zn,-5.088,-0.024,18.302,Fm-3m,0.0,,0.0,0.0,0.0,0.0
557940,MgZr2Al,Zr,Mg,Al,-5.757,-0.161,20.318,Fm-3m,0.0,,0.0,0.0,0.0,0.0
557063,MgZr2As,Zr,Mg,As,-6.004,-0.182,19.989,Fm-3m,0.0,,0.0,0.0,0.0,0.0
556288,MgZr2B,Zr,Mg,B,-5.977,0.351,17.142,Fm-3m,0.0,,0.0,0.0,0.0,0.0
557640,MgZr2Bi,Zr,Mg,Bi,-5.64,0.029,22.958,Fm-3m,0.0,,0.0,0.0,0.0,0.0
558253,MgZr2Ga,Zr,Mg,Ga,-5.605,-0.188,20.028,Fm-3m,0.0,,0.0,0.0,0.0,0.0
555934,MgZr2Ge,Zr,Mg,Ge,-5.974,-0.159,19.886,Fm-3m,0.0,,0.0,0.0,0.0,0.0
557782,MgZr2In,Zr,Mg,In,-5.434,-0.095,21.723,Fm-3m,0.0,,0.0,0.0,0.0,0.0
557576,MgZr2Sb,Zr,Mg,Sb,-5.834,-0.145,21.892,Fm-3m,0.0,,0.0,0.0,0.0,0.0
555982,MgZr2Si,Zr,Mg,Si,-6.174,-0.158,19.203,Fm-3m,0.0,,0.0,0.0,0.0,0.0
557868,MgZr2Sn,Zr,Mg,Sn,-5.806,-0.168,21.663,Fm-3m,0.0,,0.0,0.0,0.0,0.0
557755,MgZr2Zn,Zr,Mg,Zn,-5.044,-0.068,19.883,Fm-3m,0.0,,0.0,0.0,0.0,0.0
556586,Zr2MnAl,Zr,Mn,Al,-7.635,-0.169,17.804,Fm-3m,0.0,0.002,-0.005,-0.005,0.021,0.0
556417,Zr2MnAs,Zr,Mn,As,-7.942,-0.249,17.931,Fm-3m,0.0,0.404,-0.215,-0.215,2.031,0.05
557931,Zr2MnB,Zr,Mn,B,-8.093,0.107,15.231,Fm-3m,0.0,0.0,-0.001,-0.001,0.002,0.0
557651,Zr2MnBi,Zr,Mn,Bi,-7.449,0.091,20.956,Fm-3m,0.0,0.479,-0.294,-0.294,2.6,0.029
556042,Zr2MnGa,Zr,Mn,Ga,-7.511,-0.223,17.707,Fm-3m,0.0,-0.059,0.148,0.148,-0.647,0.014
557291,Zr2MnGe,Zr,Mn,Ge,-7.917,-0.231,17.97,Fm-3m,0.0,0.26,-0.279,-0.279,1.698,0.039
557713,Zr2MnIn,Zr,Mn,In,-7.219,-0.008,19.77,Fm-3m,0.0,0.107,-0.314,-0.314,1.337,-0.026
556803,MgZr2Mn,Zr,Mn,Mg,-6.811,0.105,18.397,Fm-3m,0.0,0.0,0.0,0.0,0.0,0.0
556385,Zr2MnPb,Zr,Mn,Pb,-7.351,0.106,20.809,Fm-3m,0.0,0.677,-0.204,-0.204,3.038,0.033
557152,Zr2MnSb,Zr,Mn,Sb,-7.681,-0.122,19.934,Fm-3m,0.0,0.491,-0.242,-0.242,2.482,0.037
556277,Zr2MnSi,Zr,Mn,Si,-8.132,-0.246,17.313,Fm-3m,0.0,0.25,-0.232,-0.232,1.539,0.035
557213,Zr2MnSn,Zr,Mn,Sn,-7.636,-0.127,20.031,Fm-3m,0.0,0.526,-0.271,-0.271,2.688,0.036
557629,Zr2MnZn,Zr,Mn,Zn,-6.959,-0.112,17.318,Fm-3m,0.0,,0.0,0.0,0.0,0.0
555950,Zr2AlNi,Zr,Ni,Al,-6.866,-0.264,18.122,Fm-3m,0.427,-0.003,-0.012,-0.012,-0.023,-0.001
557325,Zr2NiB,Zr,Ni,B,-7.42,-0.085,15.359,Fm-3m,0.0,0.004,0.006,0.006,0.01,0.0
558149,Zr2NiBi,Zr,Ni,Bi,-6.749,-0.074,20.503,Fm-3m,0.0,,0.0,0.0,0.0,0.0
556399,Zr2NiGe,Zr,Ni,Ge,-7.244,-0.423,17.862,Fm-3m,0.0,,0.0,0.0,0.0,0.0
557165,Zr2InNi,Zr,Ni,In,-6.401,-0.056,17.788,Fm-3m,0.0,0.0,-0.003,-0.003,-0.002,0.0
557855,MgZr2Ni,Zr,Ni,Mg,-6.034,0.017,18.556,Fm-3m,0.0,-0.01,-0.009,-0.009,-0.022,0.0
739633,Zr2NiPb,Zr,Ni,Pb,-6.345,0.247,20.552,F-43m,0.0,0.691,0.747,0.983,0.341,0.001
558294,Zr2NiSb,Zr,Ni,Sb,-6.99,-0.295,19.611,Fm-3m,0.0,,0.0,0.0,0.0,0.0
556420,Zr2ZnNi,Zr,Ni,Zn,-6.22,-0.239,17.411,Fm-3m,0.0,-0.009,-0.009,-0.009,-0.015,-0.001
556274,Zr2AlPd,Zr,Pd,Al,-6.909,-0.405,19.158,Fm-3m,0.0,0.252,0.25,0.25,0.215,0.011
557287,Zr2AsPd,Zr,Pd,As,-7.385,-0.654,18.671,Fm-3m,0.0,,0.0,0.0,0.0,0.0
557226,Zr2BPd,Zr,Pd,B,-7.336,-0.098,16.767,Fm-3m,0.0,,0.0,0.0,0.0,0.0
556394,Zr2BiPd,Zr,Pd,Bi,-6.904,-0.326,21.172,Fm-3m,0.0,,0.0,0.0,0.0,0.0
558007,Zr2GaPd,Zr,Pd,Ga,-6.822,-0.496,19.121,Fm-3m,0.0,0.003,0.004,0.004,0.003,0.0
558008,Zr2GePd,Zr,Pd,Ge,-7.3,-0.577,19.001,Fm-3m,0.0,,0.0,0.0,0.0,0.0
555962,Zr2InPd,Zr,Pd,In,-6.581,-0.334,20.448,Fm-3m,0.0,0.25,0.266,0.266,0.18,0.012
555920,MgZr2Pd,Zr,Pd,Mg,-6.106,-0.153,19.823,Fm-3m,0.0,0.0,0.0,0.0,0.0,0.0
556283,Zr2PdPb,Zr,Pd,Pb,-6.78,-0.286,21.013,Fm-3m,0.0,,0.0,0.0,0.0,0.0
556041,Zr2SbPd,Zr,Pd,Sb,-7.121,-0.523,20.409,Fm-3m,0.0,,0.0,0.0,0.0,0.0
556778,Zr2SnPd,Zr,Pd,Sn,-7.04,-0.494,20.467,Fm-3m,0.0,,0.0,0.0,0.0,0.0
557426,Zr2AlPt,Zr,Pt,Al,-7.26,-0.536,19.229,Fm-3m,0.0,,0.0,0.0,0.0,0.0