id,formula,X,Y,Z,energy,formation,lat,spacegroup,tot_mag,X1_mag,X2_mag,Y_mag,Z_mag
557017,Zr2ZnIr,Zr,Ir,Zn,-7.308,-0.504,6.648796586278186,Fm-3m,0.0,0.0,0.0,0.0,0.0
558313,LiZr2Al,Zr,Li,Al,-5.85,-0.166,6.719228936473634,Fm-3m,0.0,0.0,0.0,0.0,0.0
556425,LiZr2As,Zr,Li,As,-6.233,-0.322,6.617523070637514,Fm-3m,0.0,0.0,0.0,0.0,0.0
556487,LiZr2B,Zr,Li,B,-6.334,0.083,6.243194726142369,Fm-3m,0.0,0.0,0.0,0.0,0.0
558307,LiZr2Bi,Zr,Li,Bi,-5.761,-0.004,7.029535071473249,Fm-3m,0.0,0.0,0.0,0.0,0.0
556637,LiZr2Ga,Zr,Li,Ga,-5.749,-0.244,6.664683854771458,Fm-3m,0.0,0.0,0.0,0.0,0.0
557053,LiZr2Ge,Zr,Li,Ge,-6.208,-0.305,6.635377825443018,Fm-3m,0.0,0.0,0.0,0.0,0.0
557816,LiZr2In,Zr,Li,In,-5.506,-0.078,6.927913252491356,Fm-3m,0.0,0.0,0.0,0.0,0.0
557936,LiMgZr2,Zr,Li,Mg,-4.92,0.213,6.881037341332122,Fm-3m,0.0,0.0,0.0,0.0,0.0
556876,LiZr2Pb,Zr,Li,Pb,-5.668,0.006,6.996351840531537,Fm-3m,0.0,0.0,0.0,0.0,0.0
557118,LiZr2Sb,Zr,Li,Sb,-6.006,-0.228,6.882613933744111,Fm-3m,0.0,0.0,0.0,0.0,0.0
558279,LiZr2Si,Zr,Li,Si,-6.43,-0.326,6.563124626864328,Fm-3m,0.0,0.0,0.0,0.0,0.0
556478,LiZr2Sn,Zr,Li,Sn,-5.96,-0.233,6.915891398727042,Fm-3m,0.0,0.0,0.0,0.0,0.0
557384,LiZr2Zn,Zr,Li,Zn,-5.088,-0.024,6.640582520143482,Fm-3m,0.0,0.0,0.0,0.0,0.0
557940,MgZr2Al,Zr,Mg,Al,-5.757,-0.161,6.875964823270051,Fm-3m,0.0,0.0,0.0,0.0,0.0
557063,MgZr2As,Zr,Mg,As,-6.004,-0.182,6.838649574378853,Fm-3m,0.0,0.0,0.0,0.0,0.0
556288,MgZr2B,Zr,Mg,B,-5.977,0.351,6.497213796011377,Fm-3m,0.0,0.0,0.0,0.0,0.0
557640,MgZr2Bi,Zr,Mg,Bi,-5.64,0.029,7.1617311129008,Fm-3m,0.0,0.0,0.0,0.0,0.0
558253,MgZr2Ga,Zr,Mg,Ga,-5.605,-0.188,6.843094253385685,Fm-3m,0.0,0.0,0.0,0.0,0.0
555934,MgZr2Ge,Zr,Mg,Ge,-5.974,-0.159,6.826883198969499,Fm-3m,0.0,0.0,0.0,0.0,0.0
557782,MgZr2In,Zr,Mg,In,-5.434,-0.095,7.030937892319006,Fm-3m,0.0,0.0,0.0,0.0,0.0
557576,MgZr2Sb,Zr,Mg,Sb,-5.834,-0.145,7.049123845312527,Fm-3m,0.0,0.0,0.0,0.0,0.0
555982,MgZr2Si,Zr,Mg,Si,-6.174,-0.158,6.7478127343891305,Fm-3m,0.0,0.0,0.0,0.0,0.0
557868,MgZr2Sn,Zr,Mg,Sn,-5.806,-0.168,7.024458657305687,Fm-3m,0.0,0.0,0.0,0.0,0.0
557755,MgZr2Zn,Zr,Mg,Zn,-5.044,-0.068,6.826539880729093,Fm-3m,0.0,0.0,0.0,0.0,0.0
556586,Zr2MnAl,Zr,Mn,Al,-7.635,-0.169,6.579797421109022,Fm-3m,0.008,-0.005,-0.005,0.021,0.0
556417,Zr2MnAs,Zr,Mn,As,-7.942,-0.249,6.5954054340240935,Fm-3m,1.616,-0.215,-0.215,2.031,0.05
557931,Zr2MnB,Zr,Mn,B,-8.093,0.107,6.246203561061814,Fm-3m,0.0,-0.001,-0.001,0.002,0.0
557651,Zr2MnBi,Zr,Mn,Bi,-7.449,0.091,6.947194492447855,Fm-3m,1.916,-0.294,-0.294,2.6,0.029
556042,Zr2MnGa,Zr,Mn,Ga,-7.511,-0.223,6.567826273034869,Fm-3m,-0.236,0.148,0.148,-0.647,0.014
557291,Zr2MnGe,Zr,Mn,Ge,-7.917,-0.231,6.600183649618882,Fm-3m,1.04,-0.279,-0.279,1.698,0.039
557713,Zr2MnIn,Zr,Mn,In,-7.219,-0.008,6.81358299983507,Fm-3m,0.428,-0.314,-0.314,1.337,-0.026
556803,MgZr2Mn,Zr,Mn,Mg,-6.811,0.105,6.65205243147326,Fm-3m,0.0,0.0,0.0,0.0,0.0
556385,Zr2MnPb,Zr,Mn,Pb,-7.351,0.106,6.93091220526226,Fm-3m,2.708,-0.204,-0.204,3.038,0.033
557152,Zr2MnSb,Zr,Mn,Sb,-7.681,-0.122,6.83237160105118,Fm-3m,1.964,-0.242,-0.242,2.482,0.037
556277,Zr2MnSi,Zr,Mn,Si,-8.132,-0.246,6.518746669649447,Fm-3m,1.0,-0.232,-0.232,1.539,0.035
557213,Zr2MnSn,Zr,Mn,Sn,-7.636,-0.127,6.843435912692927,Fm-3m,2.104,-0.271,-0.271,2.688,0.036
557629,Zr2MnZn,Zr,Mn,Zn,-6.959,-0.112,6.519374147963585,Fm-3m,0.0,0.0,0.0,0.0,0.0
555950,Zr2AlNi,Zr,Ni,Al,-6.866,-0.264,6.618740735823544,Fm-3m,-0.012,-0.012,-0.012,-0.023,-0.001
557325,Zr2NiB,Zr,Ni,B,-7.42,-0.085,6.263652290015934,Fm-3m,0.016,0.006,0.006,0.01,0.0
558149,Zr2NiBi,Zr,Ni,Bi,-6.749,-0.074,6.896770875794566,Fm-3m,0.0,0.0,0.0,0.0,0.0
556399,Zr2NiGe,Zr,Ni,Ge,-7.244,-0.423,6.586934667221167,Fm-3m,0.0,0.0,0.0,0.0,0.0
557165,Zr2InNi,Zr,Ni,In,-6.401,-0.056,6.577825798421172,Fm-3m,0.0,-0.003,-0.003,-0.002,0.0
557855,MgZr2Ni,Zr,Ni,Mg,-6.034,0.017,6.671161413351233,Fm-3m,-0.04,-0.009,-0.009,-0.022,0.0
739633,Zr2NiPb,Zr,Ni,Pb,-6.345,0.247,6.902260688907508,F-43m,2.764,0.747,0.983,0.341,0.001
558294,Zr2NiSb,Zr,Ni,Sb,-6.99,-0.295,6.795267757106901,Fm-3m,0.0,0.0,0.0,0.0,0.0
556420,Zr2ZnNi,Zr,Ni,Zn,-6.22,-0.239,6.5310232936425985,Fm-3m,-0.036,-0.009,-0.009,-0.015,-0.001
556274,Zr2AlPd,Zr,Pd,Al,-6.909,-0.405,6.742537706649455,Fm-3m,1.008,0.25,0.25,0.215,0.011
557287,Zr2AsPd,Zr,Pd,As,-7.385,-0.654,6.68491445162473,Fm-3m,0.0,0.0,0.0,0.0,0.0
557226,Zr2BPd,Zr,Pd,B,-7.336,-0.098,6.449486167828703,Fm-3m,0.0,0.0,0.0,0.0,0.0
556394,Zr2BiPd,Zr,Pd,Bi,-6.904,-0.326,6.970981914281528,Fm-3m,0.0,0.0,0.0,0.0,0.0
558007,Zr2GaPd,Zr,Pd,Ga,-6.822,-0.496,6.738194270115775,Fm-3m,0.012,0.004,0.004,0.003,0.0
558008,Zr2GePd,Zr,Pd,Ge,-7.3,-0.577,6.724068775577803,Fm-3m,0.0,0.0,0.0,0.0,0.0
555962,Zr2InPd,Zr,Pd,In,-6.581,-0.334,6.890598411824535,Fm-3m,1.0,0.266,0.266,0.18,0.012
555920,MgZr2Pd,Zr,Pd,Mg,-6.106,-0.153,6.819666251874357,Fm-3m,0.0,0.0,0.0,0.0,0.0
556283,Zr2PdPb,Zr,Pd,Pb,-6.78,-0.286,6.95348754453511,Fm-3m,0.0,0.0,0.0,0.0,0.0
556041,Zr2SbPd,Zr,Pd,Sb,-7.121,-0.523,6.886214863817208,Fm-3m,0.0,0.0,0.0,0.0,0.0
556778,Zr2SnPd,Zr,Pd,Sn,-7.04,-0.494,6.892731967520821,Fm-3m,0.0,0.0,0.0,0.0,0.0
557426,Zr2AlPt,Zr,Pt,Al,-7.26,-0.536,6.750856772818749,Fm-3m,0.0,0.0,0.0,0.0,0.0
557598,Zr2AsPt,Zr,Pt,As,-7.699,-0.749,6.699561863381701,Fm-3m,0.0,0.0,0.0,0.0,0.0
557900,Zr2BPt,Zr,Pt,B,-7.66,-0.203,6.488737894639802,Fm-3m,0.0,0.0,0.0,0.0,0.0
558400,Zr2BiPt,Zr,Pt,Bi,-7.201,-0.404,6.9820492446414155,Fm-3m,0.0,0.0,0.0,0.0,0.0
557260,Zr2GaPt,Zr,Pt,Ga,-7.168,-0.622,6.742420390036297,Fm-3m,0.0,0.0,0.0,0.0,0.0
556676,Zr2GePt,Zr,Pt,Ge,-7.599,-0.656,6.742655019180259,Fm-3m,0.0,0.0,0.0,0.0,0.0
556952,Zr2InPt,Zr,Pt,In,-6.919,-0.452,6.876979925615876,Fm-3m,0.0,0.0,0.0,0.0,0.0
557928,MgZr2Pt,Zr,Pt,Mg,-6.528,-0.355,6.7860150875758185,Fm-3m,0.0,0.0,0.0,0.0,0.0
556225,Zr2PtPb,Zr,Pt,Pb,-7.076,-0.363,6.943656548240628,Fm-3m,0.0,0.0,0.0,0.0,0.0
556882,Zr2SbPt,Zr,Pt,Sb,-7.405,-0.588,6.888688320363961,Fm-3m,0.0,0.0,0.0,0.0,0.0
557470,Zr2SnPt,Zr,Pt,Sn,-7.324,-0.558,6.896210199179534,Fm-3m,0.0,0.0,0.0,0.0,0.0
555980,Zr2AlRh,Zr,Rh,Al,-7.472,-0.445,6.698016788831638,Fm-3m,0.0,0.0,0.0,0.0,0.0
558113,Zr2AsRh,Zr,Rh,As,-7.88,-0.626,6.646141315793617,Fm-3m,0.0,0.0,0.0,0.0,0.0
556626,Zr2BRh,Zr,Rh,B,-7.899,-0.139,6.405594067285454,Fm-3m,0.0,0.0,0.0,0.0,0.0
557849,Zr2BiRh,Zr,Rh,Bi,-7.361,-0.26,6.942992782196221,Fm-3m,0.0,0.0,0.0,0.0,0.0
557887,Zr2GaRh,Zr,Rh,Ga,-7.373,-0.524,6.682646112439603,Fm-3m,0.0,0.0,0.0,0.0,0.0
557720,Zr2InRh,Zr,Rh,In,-7.104,-0.333,6.836482123411081,Fm-3m,0.0,0.0,0.0,0.0,0.0
558228,MgZr2Rh,Zr,Rh,Mg,-6.712,-0.236,6.748164109766479,Fm-3m,0.0,0.0,0.0,0.0,0.0
556628,Zr2RhPb,Zr,Rh,Pb,-7.239,-0.222,6.904163278981841,Fm-3m,0.0,0.0,0.0,0.0,0.0
556342,Zr2SbRh,Zr,Rh,Sb,-7.579,-0.458,6.840929618415421,Fm-3m,0.0,0.0,0.0,0.0,0.0
556545,Zr2SnRh,Zr,Rh,Sn,-7.51,-0.44,6.854124001832624,Fm-3m,0.0,0.0,0.0,0.0,0.0
557097,Zr2ZnRh,Zr,Rh,Zn,-6.853,-0.446,6.651088068894251,Fm-3m,0.0,0.0,0.0,0.0,0.0
557610,Zr2AlRu,Zr,Ru,Al,-7.88,-0.369,6.673677069997229,Fm-3m,0.0,0.0,0.0,0.0,0.0
556447,Zr2AsRu,Zr,Ru,As,-8.165,-0.428,6.646624250057473,Fm-3m,0.0,0.0,0.0,0.0,0.0
557187,Zr2BRu,Zr,Ru,B,-8.269,-0.025,6.381063818963482,Fm-3m,0.0,0.0,0.0,0.0,0.0
556732,Zr2BiRu,Zr,Ru,Bi,-7.641,-0.058,6.93435224999057,Fm-3m,0.0,0.0,0.0,0.0,0.0
556416,Zr2GaRu,Zr,Ru,Ga,-7.759,-0.427,6.65072636081931,Fm-3m,0.0,0.0,0.0,0.0,0.0
556713,Zr2GeRu,Zr,Ru,Ge,-8.123,-0.393,6.653377973639904,Fm-3m,0.0,0.0,0.0,0.0,0.0
558376,Zr2InRu,Zr,Ru,In,-7.482,-0.228,6.815879842415863,Fm-3m,0.0,0.0,0.0,0.0,0.0
556201,MgZr2Ru,Zr,Ru,Mg,-7.136,-0.176,6.7440624512556155,Fm-3m,0.0,0.0,0.0,0.0,0.0
557682,Zr2RuPb,Zr,Ru,Pb,-7.555,-0.055,6.893180968871658,Fm-3m,0.0,0.0,0.0,0.0,0.0
557609,Zr2SbRu,Zr,Ru,Sb,-7.864,-0.261,6.842069070710661,Fm-3m,0.0,0.0,0.0,0.0,0.0
557179,Zr2SiRu,Zr,Ru,Si,-8.323,-0.392,6.594179134712778,Fm-3m,0.0,0.0,0.0,0.0,0.0
557404,Zr2SnRu,Zr,Ru,Sn,-7.835,-0.283,6.835911513098488,Fm-3m,0.0,0.0,0.0,0.0,0.0
556922,Zr2ZnRu,Zr,Ru,Zn,-7.254,-0.363,6.622999039708746,Fm-3m,0.0,0.0,0.0,0.0,0.0