id,formula,X,Y,Z,energy,formation,lat,spacegroup,tot_mag,X1_mag,X2_mag,Y_mag,Z_mag
416031,Hf2AlRu,Hf,Ru,Al,-8.601,-0.386,6.609597301604588,Fm-3m,0.0,0.0,0.0,0.0,0.0
414864,Hf2AsRu,Hf,Ru,As,-8.826,-0.384,6.604710442055778,Fm-3m,0.0,0.0,0.0,0.0,0.0
415608,Hf2BRu,Hf,Ru,B,-9.008,-0.06,6.3190320581392685,Fm-3m,0.0,0.0,0.0,0.0,0.0
415149,Hf2BiRu,Hf,Ru,Bi,-8.263,0.025,6.891160001943554,Fm-3m,0.0,0.0,0.0,0.0,0.0
414834,Hf2GaRu,Hf,Ru,Ga,-8.466,-0.43,6.587549223275863,Fm-3m,0.0,0.0,0.0,0.0,0.0
415129,Hf2GeRu,Hf,Ru,Ge,-8.81,-0.376,6.596386145242284,Fm-3m,0.0,0.0,0.0,0.0,0.0
416798,Hf2InRu,Hf,Ru,In,-8.158,-0.199,6.754248811063855,Fm-3m,0.0,0.0,0.0,0.0,0.0
414621,Hf2MgRu,Hf,Ru,Mg,-7.861,-0.197,6.664443703291906,Fm-3m,0.0,0.0,0.0,0.0,0.0
416102,Hf2RuPb,Hf,Ru,Pb,-8.197,0.007,6.84172727487281,Fm-3m,0.0,0.0,0.0,0.0,0.0
416030,Hf2SbRu,Hf,Ru,Sb,-8.486,-0.178,6.78833062017583,Fm-3m,0.0,0.0,0.0,0.0,0.0
415600,Hf2SiRu,Hf,Ru,Si,-9.027,-0.392,6.530147921919643,Fm-3m,0.0,0.0,0.0,0.0,0.0
415829,Hf2SnRu,Hf,Ru,Sn,-8.491,-0.235,6.778014344714554,Fm-3m,0.0,0.0,0.0,0.0,0.0
415339,Hf2ZnRu,Hf,Ru,Zn,-7.991,-0.396,6.5513409448887705,Fm-3m,0.0,0.0,0.0,0.0,0.0
10345,Li2AlAg,Li,Ag,Al,-2.819,-0.256,6.203813124367785,F-43m,0.0,0.0,0.0,0.0,0.0
740018,Li2AgB,Li,Ag,B,-3.057,0.267,5.715460234761725,F-43m,0.0,0.0,0.0,0.0,0.0
10355,Li2AgBi,Li,Ag,Bi,-2.991,-0.373,6.695400422212676,F-43m,0.0,0.0,0.0,0.0,0.0
740022,Li2GaAg,Li,Ag,Ga,-2.72,-0.308,6.265690708634847,F-43m,0.0,0.0,0.0,0.0,0.0
740023,Li2AgGe,Li,Ag,Ge,-3.135,-0.325,6.246750310615874,F-43m,0.0,0.0,0.0,0.0,0.0
10641,Li2InAg,Li,Ag,In,-2.605,-0.305,6.473247042153476,F-43m,0.0,0.0,0.0,0.0,0.0
10650,Li2AgPb,Li,Ag,Pb,-2.82,-0.278,6.614598844419093,F-43m,0.0,0.0,0.0,0.0,0.0
646946,Li2AgSb,Li,Ag,Sb,-3.119,-0.469,6.551837955166055,F-43m,0.0,0.0,0.0,0.0,0.0
740020,Li2SiAg,Li,Ag,Si,-3.271,-0.261,6.096226278275436,F-43m,0.0,0.0,0.0,0.0,0.0
10652,Li2AgSn,Li,Ag,Sn,-3.002,-0.402,6.471082587412902,F-43m,0.0,0.0,0.0,0.0,0.0
748506,Li2ZnAg,Li,Ag,Zn,-2.196,-0.226,6.259707580919878,F-43m,0.0,0.0,0.0,0.0,0.0
742067,Li2AlAu,Li,Au,Al,-3.216,-0.515,6.1703754980229695,F-43m,0.0,0.0,0.0,0.0,0.0
742066,Li2BAu,Li,Au,B,-3.387,0.048,5.682288306312049,F-43m,0.0,0.0,0.0,0.0,0.0
742077,Li2BiAu,Li,Au,Bi,-3.228,-0.453,6.751207831413913,F-43m,0.0,0.0,0.0,0.0,0.0
742070,Li2GaAu,Li,Au,Ga,-3.041,-0.518,6.2085210619429505,F-43m,0.0,0.0,0.0,0.0,0.0
742071,Li2GeAu,Li,Au,Ge,-3.413,-0.492,6.231679684369752,F-43m,0.0,0.0,0.0,0.0,0.0
742073,Li2InAu,Li,Au,In,-2.933,-0.488,6.50327251386735,F-43m,0.0,0.0,0.0,0.0,0.0
1141286,Li2MgAu,Li,Au,Mg,-2.595,-0.447,6.404293993358964,F-43m,0.0,0.0,0.0,0.0,0.0
742076,Li2PbAu,Li,Au,Pb,-3.103,-0.412,6.680854229983229,F-43m,0.0,0.0,0.0,0.0,0.0
742075,Li2SbAu,Li,Au,Sb,-3.342,-0.548,6.572891563729928,F-43m,0.0,0.0,0.0,0.0,0.0
742068,Li2SiAu,Li,Au,Si,-3.585,-0.464,6.057084794913774,F-43m,0.0,0.0,0.0,0.0,0.0
742074,Li2SnAu,Li,Au,Sn,-3.301,-0.558,6.502641924072467,F-43m,0.0,0.0,0.0,0.0,0.0
1121931,Li2ZnAu,Li,Au,Zn,-2.528,-0.446,6.204921517204531,F-43m,0.0,0.0,0.0,0.0,0.0
446588,Li2CdAs,Li,Cd,As,-2.748,-0.411,6.384205846340908,Fm-3m,0.0,0.0,0.0,0.0,0.0
740031,Li2CdB,Li,Cd,B,-2.588,0.255,5.866999521977707,F-43m,0.0,0.0,0.0,0.0,0.0
446595,Li2CdBi,Li,Cd,Bi,-2.544,-0.361,6.787751885124927,Fm-3m,0.0,0.0,0.0,0.0,0.0
740036,Li2CdGe,Li,Cd,Ge,-2.625,-0.296,6.4403698204609485,F-43m,0.0,0.0,0.0,0.0,0.0
740038,Li2CdIn,Li,Cd,In,-2.149,-0.296,6.634529776414646,F-43m,0.0,0.0,0.0,0.0,0.0
647017,Li2CdSb,Li,Cd,Sb,-2.529,-0.411,6.5403875862532175,Fm-3m,0.0,0.0,0.0,0.0,0.0
18787,Li2CdSn,Li,Cd,Sn,-2.432,-0.352,6.49038420394637,Fm-3m,0.0,0.0,0.0,0.0,0.0
748557,Li2ZnCd,Li,Cd,Zn,-1.72,-0.23,6.380277828462342,F-43m,0.0,0.0,0.0,0.0,0.0
716464,Li2AlCo,Li,Co,Al,-3.742,-0.085,5.818884148170797,F-43m,0.0,0.0,0.0,0.0,0.0
734865,Li2CoAs,Li,Co,As,-4.239,-0.355,5.719375940523549,F-43m,0.012,0.0,0.0,0.012,0.0
734859,Li2CoB,Li,Co,B,-4.224,0.166,5.225515619544147,F-43m,-0.0,0.0,0.0,0.0,0.0
734870,Li2CoBi,Li,Co,Bi,-3.836,-0.105,6.246886983050841,F-43m,0.02,0.0,0.0,0.02,0.0
734863,Li2GaCo,Li,Co,Ga,-3.615,-0.136,5.781630347511146,F-43m,0.0,0.0,0.0,0.001,0.0
716468,Li2CoGe,Li,Co,Ge,-4.115,-0.238,5.7619386478460495,F-43m,0.0,0.0,0.0,0.0,0.0
734866,Li2InCo,Li,Co,In,-3.424,-0.024,6.104681526667865,F-43m,0.0,0.0,0.0,0.001,0.0
446652,Li2MgCo,Li,Co,Mg,-2.831,0.275,6.116821793770895,Fm-3m,0.008,0.0,0.0,0.012,0.0
734869,Li2CoPb,Li,Co,Pb,-3.653,-0.006,6.218191455941984,F-43m,0.016,0.0,0.0,0.018,0.0
734868,Li2CoSb,Li,Co,Sb,-4.043,-0.293,6.054757999248493,F-43m,0.008,0.0,0.0,0.007,0.0
716465,Li2CoSi,Li,Co,Si,-4.335,-0.258,5.6112020665872056,F-43m,0.0,0.0,0.0,0.0,0.0
716471,Li2CoSn,Li,Co,Sn,-3.907,-0.208,6.102963712570372,F-43m,0.012,0.0,0.0,0.01,0.0
747998,Li2ZnCo,Li,Co,Zn,-2.976,0.061,5.827691597481822,F-43m,0.016,0.0,-0.001,0.021,-0.001
734975,Li2AlCu,Li,Cu,Al,-3.004,-0.19,5.96198183420354,F-43m,0.0,0.0,0.0,0.0,0.0
734974,Li2CuB,Li,Cu,B,-3.348,0.199,5.385604088462317,F-43m,0.0,0.0,0.0,0.0,0.0
734985,Li2CuBi,Li,Cu,Bi,-3.188,-0.301,6.442040941025877,F-43m,0.0,0.0,0.0,0.0,0.0
733015,Li2GaCu,Li,Cu,Ga,-2.896,-0.26,5.94331806441956,F-43m,0.0,0.0,0.0,0.0,0.0
716564,Li2CuGe,Li,Cu,Ge,-3.359,-0.326,5.920583093284343,F-43m,0.0,0.0,0.0,0.0,0.0
716566,Li2InCu,Li,Cu,In,-2.78,-0.222,6.246340257423767,F-43m,0.0,0.0,0.0,0.0,0.0
446523,Li2MgCu,Li,Cu,Mg,-2.263,0.0,6.166029964293387,Fm-3m,0.0,0.0,0.0,0.0,0.0
733021,Li2CuPb,Li,Cu,Pb,-3.011,-0.208,6.381325772773131,F-43m,0.0,0.0,0.0,0.0,0.0
647156,Li2CuSb,Li,Cu,Sb,-3.282,-0.433,6.179048250496846,F-43m,0.0,0.0,0.0,0.0,0.0
733013,Li2CuSi,Li,Cu,Si,-3.515,-0.281,5.7673953363621155,F-43m,0.0,0.0,0.0,0.0,0.0
17154,Li2CuSn,Li,Cu,Sn,-3.153,-0.354,6.141383045295929,F-43m,0.0,0.0,0.0,0.0,0.0
748100,Li2ZnCu,Li,Cu,Zn,-2.338,-0.145,5.969324922006066,F-43m,0.0,0.0,0.0,0.0,0.0
734923,Li2AlFe,Li,Fe,Al,-3.881,0.08,5.8550447146283835,F-43m,2.008,-0.02,-0.038,2.18,-0.054
732957,Li2FeAs,Li,Fe,As,-4.426,-0.238,5.846631610929743,F-43m,2.404,-0.015,-0.001,2.295,0.016
732951,Li2FeB,Li,Fe,B,-4.391,0.304,5.262365410504611,F-43m,1.264,-0.023,0.009,1.404,-0.098
716510,Li2FeBi,Li,Fe,Bi,-4.032,0.003,6.4129944318428596,F-43m,2.628,-0.013,-0.013,2.543,0.012
734926,Li2GaFe,Li,Fe,Ga,-3.777,0.006,5.813681534193965,F-43m,2.22,-0.015,-0.033,2.341,-0.09
732956,Li2FeGe,Li,Fe,Ge,-4.292,-0.111,5.9045641213503615,F-43m,2.432,-0.016,-0.004,2.395,-0.045
734929,Li2InFe,Li,Fe,In,-3.611,0.095,6.1382705467325405,F-43m,2.488,-0.017,-0.028,2.569,-0.078
445699,Li2MgFe,Li,Fe,Mg,-3.072,0.339,6.13883669034494,Fm-3m,2.38,-0.056,-0.056,2.732,-0.033
734932,Li2FePb,Li,Fe,Pb,-3.838,0.113,6.232228985122668,F-43m,2.536,-0.015,-0.017,2.506,-0.036
716508,Li2FeSb,Li,Fe,Sb,-4.225,-0.17,6.204367370288977,F-43m,2.492,-0.018,-0.016,2.383,0.011
732953,Li2FeSi,Li,Fe,Si,-4.487,-0.106,5.62219086071673,F-43m,0.464,-0.006,0.002,0.495,-0.028
716507,Li2FeSn,Li,Fe,Sn,-4.097,-0.093,6.227419316285089,F-43m,2.532,-0.011,-0.015,2.504,-0.054
748151,Li2ZnFe,Li,Fe,Zn,-3.202,0.14,5.976052696415359,F-43m,2.38,-0.037,-0.051,2.653,-0.074
742028,Li2AlIr,Li,Ir,Al,-4.584,-0.485,5.950707257687417,F-43m,-0.0,0.0,0.0,0.0,0.0
742033,Li2AsIr,Li,Ir,As,-4.746,-0.421,5.946637933014408,F-43m,0.004,0.0,0.0,0.001,0.0
742027,Li2BIr,Li,Ir,B,-4.877,-0.045,5.445612719196929,F-43m,0.0,0.0,0.0,0.0,0.0
742038,Li2BiIr,Li,Ir,Bi,-4.406,-0.235,6.418048015046711,F-43m,-0.004,0.0,0.0,-0.001,0.0
742031,Li2GaIr,Li,Ir,Ga,-4.351,-0.431,5.981125875343613,F-43m,-0.004,0.0,0.0,-0.001,0.0
742032,Li2GeIr,Li,Ir,Ge,-4.765,-0.447,5.950406017064361,F-43m,-0.0,0.0,0.0,0.0,0.0
18511,Li2InIr,Li,Ir,In,-4.123,-0.292,6.26922082896268,F-43m,0.0,0.0,0.0,0.0,0.0
742037,Li2IrPb,Li,Ir,Pb,-4.272,-0.184,6.398567387673186,F-43m,-0.0,0.0,0.0,0.0,0.0
742036,Li2SbIr,Li,Ir,Sb,-4.637,-0.445,6.235934235094889,F-43m,0.0,0.0,0.0,0.001,0.0
742029,Li2SiIr,Li,Ir,Si,-5.054,-0.536,5.802931534295113,F-43m,-0.0,0.0,0.0,0.0,0.0
742035,Li2SnIr,Li,Ir,Sn,-4.581,-0.44,6.255621608753065,F-43m,-0.004,0.0,0.0,0.0,0.0
1121929,Li2ZnIr,Li,Ir,Zn,-3.695,-0.216,5.969624256322183,F-43m,-0.0,0.0,0.0,0.0,0.0
734847,Li2MgAl,Li,Mg,Al,-2.391,-0.121,6.539140562964479,F-43m,0.0,0.0,0.0,0.0,0.0
446214,Li2MgAs,Li,Mg,As,-2.892,-0.395,6.397003805867962,Fm-3m,0.0,0.0,0.0,0.0,0.0
734846,Li2MgB,Li,Mg,B,-2.725,0.278,5.848503281841408,F-43m,0.0,0.0,0.0,0.0,0.0
446801,Li2MgBi,Li,Mg,Bi,-2.681,-0.337,6.866815384133623,Fm-3m,0.0,0.0,0.0,0.0,0.0
734850,Li2MgGa,Li,Mg,Ga,-2.331,-0.24,6.422835094524961,F-43m,0.0,0.0,0.0,0.0,0.0
734853,Li2MgIn,Li,Mg,In,-2.264,-0.25,6.728194840064704,F-43m,0.0,0.0,0.0,0.0,0.0
734856,Li2MgPb,Li,Mg,Pb,-2.532,-0.272,6.834655834981868,F-43m,0.0,0.0,0.0,0.0,0.0
446737,Li2MgSb,Li,Mg,Sb,-2.755,-0.392,6.709883682499279,Fm-3m,0.0,0.0,0.0,0.0,0.0
734854,Li2MgSn,Li,Mg,Sn,-2.691,-0.379,6.710712794348451,F-43m,0.0,0.0,0.0,0.0,0.0
734849,Li2MgZn,Li,Mg,Zn,-1.785,-0.135,6.438569181762505,F-43m,0.0,0.0,0.0,0.0,0.0
716488,Li2MnAl,Li,Mn,Al,-4.127,0.014,6.102390892921085,F-43m,3.44,-0.004,-0.044,3.469,-0.076
734890,Li2MnAs,Li,Mn,As,-4.656,-0.288,6.0243455267241295,F-43m,3.84,-0.009,-0.016,3.527,0.024
716487,Li2MnB,Li,Mn,B,-4.609,0.266,5.453693873789465,F-43m,3.08,0.032,-0.027,3.174,-0.175
716498,Li2MnBi,Li,Mn,Bi,-4.306,-0.091,6.58926937049805,F-43m,3.912,-0.027,-0.018,3.659,0.009
734888,Li2MnGa,Li,Mn,Ga,-4.057,-0.094,6.091774275122393,F-43m,3.652,0.008,-0.036,3.612,-0.123
734889,Li2MnGe,Li,Mn,Ge,-4.539,-0.178,6.029631202194264,F-43m,3.716,0.012,-0.016,3.512,-0.078
734891,Li2MnIn,Li,Mn,In,-3.925,-0.04,6.419989583417524,F-43m,3.828,0.005,-0.034,3.753,-0.112
445957,Li2MgMn,Li,Mn,Mg,-3.347,0.243,6.346427817043651,Fm-3m,3.432,-0.056,-0.056,3.738,-0.051
734894,Li2MnPb,Li,Mn,Pb,-4.116,0.015,6.3294331172690965,F-43m,3.888,0.004,-0.018,3.633,-0.054
716496,Li2MnSb,Li,Mn,Sb,-4.463,-0.228,6.348810408113573,F-43m,3.816,-0.018,-0.017,3.528,0.003
734886,Li2MnSi,Li,Mn,Si,-4.701,-0.139,5.854422350645631,F-43m,3.34,0.01,-0.02,3.222,-0.083
734892,Li2MnSn,Li,Mn,Sn,-4.37,-0.186,6.397655391168861,F-43m,3.924,0.005,-0.015,3.668,-0.081
748202,Li2MnZn,Li,Mn,Zn,-3.444,0.078,6.0743345192780005,F-43m,3.124,-0.036,-0.079,3.472,-0.111
716440,Li2AlNi,Li,Ni,Al,-3.52,-0.243,5.84288466983397,F-43m,-0.004,0.0,0.0,-0.002,0.0
716445,Li2NiAs,Li,Ni,As,-4.018,-0.515,5.769318763330244,F-43m,-0.0,0.0,0.0,0.0,0.0
734833,Li2NiB,Li,Ni,B,-3.921,0.088,5.278685010758604,F-43m,0.004,0.0,0.0,0.001,0.0
734844,Li2NiBi,Li,Ni,Bi,-3.654,-0.304,6.282085666396591,F-43m,-0.004,0.0,0.0,-0.002,0.0
734837,Li2GaNi,Li,Ni,Ga,-3.394,-0.296,5.813523733815673,F-43m,-0.004,0.0,0.0,-0.001,0.0
716444,Li2NiGe,Li,Ni,Ge,-3.872,-0.376,5.8021395198268095,F-43m,-0.016,0.0,0.0,-0.005,0.0
734840,Li2InNi,Li,Ni,In,-3.238,-0.218,6.126783598294982,F-43m,-0.008,0.0,0.0,-0.003,0.0
447015,Li2MgNi,Li,Ni,Mg,-2.689,0.036,6.06260378183482,Fm-3m,0.0,0.0,0.0,0.0,0.0
734843,Li2NiPb,Li,Ni,Pb,-3.464,-0.198,6.245109774709398,F-43m,-0.004,0.0,0.0,-0.002,0.0
734842,Li2NiSb,Li,Ni,Sb,-3.837,-0.468,6.110829102382764,F-43m,-0.004,0.0,0.0,-0.001,0.0
716441,Li2SiNi,Li,Ni,Si,-4.066,-0.37,5.645546912784046,F-43m,-0.012,0.0,0.0,-0.003,0.0
716447,Li2NiSn,Li,Ni,Sn,-3.696,-0.378,6.117534427674606,F-43m,0.0,0.0,0.0,0.0,0.0
1121902,Li2ZnNi,Li,Ni,Zn,-2.807,-0.151,5.848971012432162,F-43m,-0.004,0.0,0.0,0.0,0.0
17880,Li2AlPd,Li,Pd,Al,-3.685,-0.536,6.02008086630665,F-43m,0.0,0.0,0.0,0.0,0.0
739959,Li2AsPd,Li,Pd,As,-4.057,-0.652,6.050681798262195,F-43m,0.0,0.0,0.0,0.0,0.0
739953,Li2BPd,Li,Pd,B,-3.951,-0.039,5.531652204572576,F-43m,0.0,0.0,0.0,0.0,0.0
739964,Li2BiPd,Li,Pd,Bi,-3.787,-0.535,6.533648001874142,F-43m,0.0,0.0,0.0,0.0,0.0
18508,Li2GaPd,Li,Pd,Ga,-3.521,-0.552,6.0118285175567605,F-43m,0.0,0.0,0.0,0.0,0.0
739958,Li2GePd,Li,Pd,Ge,-3.959,-0.56,6.055921620580478,F-43m,0.0,0.0,0.0,0.0,0.0
18382,Li2InPd,Li,Pd,In,-3.398,-0.505,6.318631333167801,F-43m,0.0,0.0,0.0,0.0,0.0
445077,Li2MgPd,Li,Pd,Mg,-2.969,-0.341,6.2110106115228465,Fm-3m,0.0,0.0,0.0,0.0,0.0
739963,Li2PdPb,Li,Pd,Pb,-3.613,-0.444,6.481382624241769,F-43m,0.0,0.0,0.0,0.0,0.0
739962,Li2SbPd,Li,Pd,Sb,-3.941,-0.669,6.342718004530725,F-43m,0.0,0.0,0.0,0.0,0.0
739955,Li2SiPd,Li,Pd,Si,-4.149,-0.55,5.902268590397704,F-43m,0.0,0.0,0.0,0.0,0.0
739961,Li2SnPd,Li,Pd,Sn,-3.836,-0.615,6.327568777509621,F-43m,0.0,0.0,0.0,0.0,0.0
748710,Li2ZnPd,Li,Pd,Zn,-3.005,-0.446,6.0782347137343065,F-43m,0.0,0.0,0.0,0.0,0.0
17882,Li2AlPt,Li,Pt,Al,-4.089,-0.709,5.999259167790963,F-43m,0.0,0.0,0.0,0.0,0.0
742007,Li2AsPt,Li,Pt,As,-4.284,-0.659,6.054176020823738,F-43m,0.004,0.0,0.0,-0.001,0.0
742001,Li2BPt,Li,Pt,B,-4.309,-0.177,5.528862051352669,F-43m,0.004,0.0,0.0,0.0,0.0
742012,Li2BiPt,Li,Pt,Bi,-4.009,-0.537,6.538267363588562,F-43m,-0.0,0.0,0.0,0.0,0.0
742005,Li2GaPt,Li,Pt,Ga,-3.889,-0.669,6.0499533270538235,F-43m,-0.0,0.0,0.0,0.0,0.0
742006,Li2GePt,Li,Pt,Ge,-4.261,-0.643,6.0330033158585925,F-43m,-0.0,0.0,0.0,0.0,0.0
18385,Li2InPt,Li,Pt,In,-3.709,-0.585,6.326636195509747,F-43m,0.0,0.0,0.0,0.0,0.0
1478633,Li2MgPt,Li,Pt,Mg,-3.393,-0.545,6.230168607762411,F-43m,-0.0,0.0,0.0,0.0,0.0
742011,Li2PtPb,Li,Pt,Pb,-3.863,-0.474,6.479985774495011,F-43m,-0.0,0.0,0.0,0.0,0.0
742010,Li2SbPt,Li,Pt,Sb,-4.18,-0.688,6.32383679859759,F-43m,0.004,0.0,0.0,-0.001,0.0
742003,Li2SiPt,Li,Pt,Si,-4.501,-0.683,5.882298760285268,F-43m,0.0,0.0,0.0,0.0,0.0
742009,Li2SnPt,Li,Pt,Sn,-4.126,-0.685,6.325969897144015,F-43m,0.0,0.0,0.0,0.0,0.0
1121903,Li2ZnPt,Li,Pt,Zn,-3.333,-0.554,6.037542382755255,F-43m,-0.0,0.0,0.0,0.0,0.0
17884,Li2AlRh,Li,Rh,Al,-4.181,-0.497,5.951159061444197,F-43m,0.0,0.0,0.0,0.0,0.0
739972,Li2AsRh,Li,Rh,As,-4.488,-0.56,5.932123924128638,F-43m,0.008,0.0,0.0,0.002,0.0
739966,Li2BRh,Li,Rh,B,-4.517,-0.082,5.435161499381787,F-43m,-0.0,0.0,0.0,0.0,0.0
739977,Li2BiRh,Li,Rh,Bi,-4.164,-0.389,6.39921865461316,F-43m,0.004,0.0,0.0,0.003,0.0
18360,Li2GaRh,Li,Rh,Ga,-3.996,-0.492,5.943620023930529,F-43m,0.0,0.0,0.0,0.0,0.0
739971,Li2GeRh,Li,Rh,Ge,-4.441,-0.519,5.948145739548006,F-43m,0.004,0.0,0.0,0.002,0.0
18510,Li2InRh,Li,Rh,In,-3.818,-0.389,6.255621608753065,F-43m,0.0,0.0,0.0,0.0,0.0
739976,Li2RhPb,Li,Rh,Pb,-4.008,-0.316,6.389566332981776,F-43m,0.0,0.0,0.0,0.0,0.0
739975,Li2SbRh,Li,Rh,Sb,-4.367,-0.572,6.231267645246336,F-43m,0.008,0.0,0.0,0.002,0.0
739968,Li2SiRh,Li,Rh,Si,-4.679,-0.557,5.807520960624359,F-43m,0.004,0.0,0.0,0.001,0.0
739974,Li2SnRh,Li,Rh,Sn,-4.274,-0.53,6.247706892101213,F-43m,-0.0,0.0,0.0,-0.001,0.0
748761,Li2ZnRh,Li,Rh,Zn,-3.396,-0.314,5.977247160446452,F-43m,-0.004,0.0,0.0,0.001,0.0
739928,Li2AlRu,Li,Ru,Al,-4.365,-0.179,5.955823688661316,F-43m,-0.008,0.0,0.0,-0.001,0.0
739933,Li2AsRu,Li,Ru,As,-4.727,-0.315,5.902574764362222,F-43m,0.012,0.0,0.0,0.005,0.0
739927,Li2BRu,Li,Ru,B,-4.789,0.129,5.407944410805416,F-43m,-0.0,0.0,0.0,0.0,0.0
739938,Li2BiRu,Li,Ru,Bi,-4.34,-0.082,6.38289704418727,F-43m,-0.004,0.0,0.0,-0.002,0.0
739931,Li2GaRu,Li,Ru,Ga,-4.187,-0.18,5.951911915295646,F-43m,-0.004,0.0,0.0,-0.001,0.0
739932,Li2GeRu,Li,Ru,Ge,-4.681,-0.277,5.924840210043813,F-43m,-0.004,0.0,0.0,-0.001,0.0
739934,Li2InRu,Li,Ru,In,-3.965,-0.036,6.279111129553886,F-43m,-0.012,0.0,0.001,-0.012,0.002
445359,Li2MgRu,Li,Ru,Mg,-3.391,0.243,6.091486825586748,Fm-3m,0.0,0.0,0.0,0.004,0.0
739937,Li2RuPb,Li,Ru,Pb,-4.179,-0.004,6.37490170295699,F-43m,-0.004,0.0,0.0,-0.001,0.0
739936,Li2SbRu,Li,Ru,Sb,-4.575,-0.297,6.2141888011863475,F-43m,0.0,0.0,0.0,0.0,0.0
739929,Li2SiRu,Li,Ru,Si,-4.948,-0.343,5.778597297735828,F-43m,0.0,0.0,0.0,0.001,0.0
739935,Li2SnRu,Li,Ru,Sn,-4.469,-0.242,6.24018298827834,F-43m,-0.008,0.0,0.0,-0.002,0.0
1121904,Li2ZnRu,Li,Ru,Zn,-3.49,0.075,5.962431930976668,F-43m,0.004,0.0,0.0,0.0,0.0
473611,Mn2AlAg,Mn,Ag,Al,-5.981,0.174,6.100385176788799,Fm-3m,5.988,3.004,3.004,0.019,-0.095
472556,Mn2AgAs,Mn,Ag,As,-6.134,0.247,6.163925086009985,Fm-3m,6.832,3.294,3.294,0.059,-0.059
471895,Mn2AgB,Mn,Ag,B,-6.186,0.702,5.890610363905312,Fm-3m,6.024,3.072,3.072,0.044,-0.225
472335,Mn2AgBi,Mn,Ag,Bi,-5.821,0.408,6.537643506922474,Fm-3m,7.164,3.456,3.456,0.026,-0.069
471702,Mn2GaAg,Mn,Ag,Ga,-5.801,0.176,6.15900810475447,Fm-3m,6.48,3.246,3.246,0.017,-0.168
473843,Mn2AgGe,Mn,Ag,Ge,-6.167,0.208,6.192151011102087,Fm-3m,6.716,3.299,3.299,0.038,-0.127
473566,Mn2InAg,Mn,Ag,In,-5.623,0.275,6.367544019268153,Fm-3m,7.064,3.485,3.485,0.017,-0.149
472032,MgMn2Ag,Mn,Ag,Mg,-5.259,0.345,6.281139528431751,Fm-3m,7.412,3.601,3.601,0.049,-0.039
473095,Mn2AgPb,Mn,Ag,Pb,-5.744,0.4,6.539888834004649,Fm-3m,7.316,3.557,3.557,0.02,-0.087
473443,Mn2AgSb,Mn,Ag,Sb,-5.987,0.261,6.37372036343344,Fm-3m,6.744,3.271,3.271,0.04,-0.069
473151,Mn2SiAg,Mn,Ag,Si,-6.381,0.194,5.999851848193722,Fm-3m,5.576,2.792,2.792,0.046,-0.131
472827,Mn2AgSn,Mn,Ag,Sn,-5.994,0.203,6.352116598646011,Fm-3m,6.72,3.305,3.305,0.022,-0.146
473067,Mn2ZnAg,Mn,Ag,Zn,-5.251,0.284,6.112970698234259,Fm-3m,7.224,3.53,3.53,0.052,-0.081
471877,Mn2AlAu,Mn,Au,Al,-6.253,0.013,6.161116343470762,Fm-3m,6.6,3.251,3.251,0.049,-0.09
471709,Mn2AsAu,Mn,Au,As,-6.357,0.136,6.230718174969228,Fm-3m,6.884,3.338,3.338,0.062,-0.084
473748,Mn2BAu,Mn,Au,B,-6.392,0.607,5.9879759196785844,Fm-3m,6.796,3.399,3.399,0.073,-0.216
473675,Mn2BiAu,Mn,Au,Bi,-6.045,0.295,6.570298122225933,Fm-3m,7.176,3.481,3.481,0.026,-0.093
472266,Mn2GaAu,Mn,Au,Ga,-6.056,0.032,6.199098030425947,Fm-3m,6.916,3.402,3.402,0.044,-0.15
472203,Mn2GeAu,Mn,Au,Ge,-6.391,0.095,6.252894659144777,Fm-3m,7.088,3.447,3.447,0.057,-0.106
471852,Mn2InAu,Mn,Au,In,-5.886,0.124,6.394396136335047,Fm-3m,7.256,3.545,3.545,0.033,-0.136
1142030,MgMn2Au,Mn,Au,Mg,-5.626,0.09,6.388913096596646,F-43m,7.744,3.694,3.677,0.085,-0.028
473667,Mn2PbAu,Mn,Au,Pb,-5.972,0.284,6.526644085937024,Fm-3m,7.312,3.56,3.56,0.028,-0.092
472851,Mn2SbAu,Mn,Au,Sb,-6.194,0.166,6.411308132940022,Fm-3m,6.684,3.266,3.266,0.038,-0.089
473392,Mn2SiAu,Mn,Au,Si,-6.581,0.105,6.064199509358744,Fm-3m,5.848,2.921,2.921,0.044,-0.136
472941,Mn2SnAu,Mn,Au,Sn,-6.213,0.096,6.3923084683396,Fm-3m,6.896,3.378,3.378,0.026,-0.143
472822,Mn2ZnAu,Mn,Au,Zn,-5.568,0.079,6.155913408036109,Fm-3m,7.404,3.575,3.575,0.076,-0.066
473022,Mn2AlCd,Mn,Cd,Al,-5.502,0.173,6.137421135451132,Fm-3m,5.788,2.912,2.912,-0.031,-0.08
473074,Mn2CdAs,Mn,Cd,As,-5.581,0.321,6.216259783410314,Fm-3m,6.252,3.111,3.111,-0.033,-0.082
473671,Mn2CdB,Mn,Cd,B,-5.649,0.759,5.950406017064361,Fm-3m,6.052,3.052,3.052,-0.002,-0.166
473081,Mn2CdBi,Mn,Cd,Bi,-5.292,0.457,6.641791745627299,Fm-3m,6.612,3.294,3.294,-0.061,-0.095
736164,Mn2CdGa,Mn,Cd,Ga,-5.091,0.405,6.049516160109094,F-43m,4.284,2.695,1.485,-0.02,-0.041
472971,Mn2CdGe,Mn,Cd,Ge,-5.639,0.256,6.2780287807565855,Fm-3m,6.608,3.249,3.249,-0.02,-0.081
472142,Mn2CdIn,Mn,Cd,In,-5.159,0.26,6.445252199803162,Fm-3m,6.812,3.373,3.373,-0.049,-0.116
474057,MgMn2Cd,Mn,Cd,Mg,-4.797,0.327,6.305647074069011,Fm-3m,6.48,3.242,3.242,-0.074,-0.041
472835,Mn2CdPb,Mn,Cd,Pb,-5.222,0.443,6.577825798421172,Fm-3m,6.976,3.411,3.411,-0.042,-0.059
473285,Mn2CdSb,Mn,Cd,Sb,-5.434,0.334,6.42554891422748,Fm-3m,6.268,3.101,3.101,-0.036,-0.065
472361,Mn2CdSi,Mn,Cd,Si,-5.839,0.255,6.0519926045853225,Fm-3m,5.344,2.696,2.696,-0.012,-0.106
473418,Mn2CdSn,Mn,Cd,Sn,-5.476,0.241,6.438569181762505,Fm-3m,6.54,3.227,3.227,-0.033,-0.107
473558,Mn2ZnCd,Mn,Cd,Zn,-4.775,0.28,6.141241636522098,Fm-3m,6.088,3.075,3.075,-0.061,-0.087
716333,Mn2AlCo,Mn,Co,Al,-7.495,-0.272,5.70204092298891,F-43m,2.028,0.0,0.0,0.0,0.0
733889,Mn2CoAs,Mn,Co,As,-7.532,-0.083,5.713336985350706,F-43m,4.0,2.845,0.043,1.013,0.036
716332,Mn2CoB,Mn,Co,B,-7.946,0.009,5.355277640603015,F-43m,2.044,2.269,-0.915,0.666,0.003
716343,Mn2CoBi,Mn,Co,Bi,-6.865,0.43,6.2371683404576235,F-43m,7.38,3.182,2.838,1.233,-0.038
20349,Mn2GaCo,Mn,Co,Ga,-7.215,-0.172,5.772841718929645,F-43m,2.0,-1.799,2.838,0.961,-0.017
20352,Mn2CoGe,Mn,Co,Ge,-7.599,-0.158,5.741626122098095,F-43m,3.008,-0.794,2.824,0.916,0.015
473969,Mn2InCo,Mn,Co,In,-6.787,0.178,6.064779565750379,Fm-3m,7.908,3.153,3.153,1.594,-0.087
473138,MgMn2Co,Mn,Co,Mg,-6.465,0.206,5.903493095728944,Fm-3m,7.628,3.1,3.1,1.391,-0.028
733893,Mn2CoPb,Mn,Co,Pb,-6.792,0.42,6.197154434741126,F-43m,7.616,3.205,3.153,1.187,-0.083
716341,Mn2CoSb,Mn,Co,Sb,-7.277,0.038,5.964681396190826,F-43m,3.976,3.019,0.005,0.943,0.007
20351,Mn2CoSi,Mn,Co,Si,-8.011,-0.369,5.5994897494277,F-43m,2.992,-0.494,2.608,0.847,0.01