id,formula,X,Y,Z,energy,formation,lat,spacegroup,tot_mag,X1_mag,X2_mag,Y_mag,Z_mag
717158,LiCr2Ga,Cr,Li,Ga,-5.797,0.189,5.7934130532788926,F-43m,-0.032,0.327,-0.365,0.001,-0.001
717159,LiCr2Ge,Cr,Li,Ge,-6.32,0.065,5.759849533106466,F-43m,0.056,0.058,-0.02,0.0,-0.001
388113,LiCr2In,Cr,Li,In,-5.479,0.429,6.509697556271107,Fm-3m,7.612,3.608,3.608,0.017,-0.159
733383,LiMgCr2,Cr,Li,Mg,-4.962,0.652,5.979634657381751,F-43m,0.02,0.0,0.0,0.0,0.0
387168,LiCr2Pb,Cr,Li,Pb,-5.641,0.513,6.6483139675717196,Fm-3m,7.88,3.714,3.714,0.008,-0.154
717163,LiCr2Sb,Cr,Li,Sb,-6.19,0.068,6.004736999895199,F-43m,0.0,2.312,-2.314,0.027,-0.022
733454,LiCr2Si,Cr,Li,Si,-6.639,-0.054,5.65590267293296,F-43m,-0.02,0.07,-0.092,0.001,-0.001
717162,LiCr2Sn,Cr,Li,Sn,-5.974,0.233,6.03959004863474,F-43m,0.044,0.034,0.003,0.0,-0.001
733438,LiZnCr2,Cr,Li,Zn,-5.112,0.432,5.788323715339328,F-43m,0.004,-0.001,0.003,0.0,0.0
733386,MgAlCr2,Cr,Mg,Al,-5.82,0.257,6.02228747924024,F-43m,0.068,0.036,0.009,0.0,-0.001
387352,MgCr2As,Cr,Mg,As,-5.991,0.312,6.114254935813688,Fm-3m,4.872,2.321,2.321,0.007,-0.071
733385,MgCr2B,Cr,Mg,B,-6.272,0.538,5.614587816558925,F-43m,0.004,-0.002,0.008,0.0,0.0
387937,MgCr2Bi,Cr,Mg,Bi,-5.598,0.552,6.731609749560526,Fm-3m,7.992,3.701,3.701,-0.022,-0.068
733389,MgCr2Ga,Cr,Mg,Ga,-5.622,0.276,6.004589081752513,F-43m,0.072,0.072,-0.023,0.0,-0.002
733390,MgCr2Ge,Cr,Mg,Ge,-6.145,0.15,6.153097344784942,F-43m,0.004,2.723,-2.735,0.019,-0.015
388078,MgCr2In,Cr,Mg,In,-5.418,0.401,6.477825821428847,Fm-3m,6.696,3.233,3.233,-0.025,-0.133
386309,MgCr2Pb,Cr,Mg,Pb,-5.494,0.572,6.502011211951724,Fm-3m,5.736,2.774,2.774,-0.023,-0.096
387873,MgCr2Sb,Cr,Mg,Sb,-5.826,0.344,6.355023202041932,Fm-3m,4.86,2.324,2.324,-0.005,-0.073
733387,MgCr2Si,Cr,Mg,Si,-6.418,0.078,5.979634657381751,F-43m,-0.0,2.118,-2.126,0.016,-0.013
733393,MgCr2Sn,Cr,Mg,Sn,-5.861,0.258,6.227006713135649,F-43m,-0.004,2.669,-2.677,0.019,-0.038
733388,MgZnCr2,Cr,Mg,Zn,-5.029,0.427,5.998073455544692,F-43m,0.004,0.013,-0.013,0.0,0.0
733427,MnAlCr2,Cr,Mn,Al,-8.033,-0.086,5.809259881450354,F-43m,1.984,-1.47,1.799,1.612,-0.011
386715,MnCr2As,Cr,Mn,As,-8.179,-0.005,5.834436435377645,Fm-3m,0.064,-1.419,-1.419,2.777,0.079
733426,MnCr2B,Cr,Mn,B,-8.597,0.084,5.411224935971975,F-43m,1.396,-0.601,1.071,0.949,-0.03
717153,MnCr2Bi,Cr,Mn,Bi,-7.333,0.688,6.10067178841631,F-43m,1.888,1.542,-0.528,0.625,-0.014
733430,MnCr2Ga,Cr,Mn,Ga,-7.772,-0.003,5.821403282268995,F-43m,1.988,-1.586,1.864,1.669,-0.007
717147,MnCr2Ge,Cr,Mn,Ge,-8.167,-0.0,5.7414643360200115,F-43m,0.972,-1.399,1.344,1.031,-0.014
733433,MnCr2In,Cr,Mn,In,-7.311,0.38,5.993919766467267,F-43m,1.984,-2.013,2.09,1.863,0.005
387093,MgMnCr2,Cr,Mn,Mg,-6.835,0.562,5.842728442971066,Fm-3m,0.012,0.012,0.012,-0.012,0.0
386683,MnCr2Pb,Cr,Mn,Pb,-7.236,0.701,6.191316320654407,Fm-3m,4.996,1.818,1.818,1.227,-0.04
733435,MnCr2Sb,Cr,Mn,Sb,-7.742,0.298,6.050099035329862,F-43m,2.076,1.006,0.281,0.651,-0.015
733428,MnCr2Si,Cr,Mn,Si,-8.603,-0.236,5.645044863256029,F-43m,1.148,-0.631,0.934,0.825,-0.015
733434,MnCr2Sn,Cr,Mn,Sn,-7.694,0.296,6.105826199194713,F-43m,1.628,-1.134,1.342,1.088,-0.024
1123516,MnZnCr2,Cr,Mn,Zn,-7.191,0.136,5.852398753287975,F-43m,2.936,2.27,-1.763,2.307,0.019
733372,AlCr2Ni,Cr,Ni,Al,-7.181,-0.099,5.824863535764269,F-43m,0.984,2.301,-1.738,0.473,-0.009
733377,Cr2NiAs,Cr,Ni,As,-7.219,0.09,5.833496231278637,F-43m,1.784,2.62,-1.304,0.383,0.038
733371,Cr2NiB,Cr,Ni,B,-7.585,0.231,5.4400317183848435,F-43m,1.02,1.381,-0.828,0.457,0.002
717105,Cr2NiBi,Cr,Ni,Bi,-6.67,0.485,6.139544223047986,F-43m,1.024,3.079,-2.368,0.227,0.017
733375,Cr2GaNi,Cr,Ni,Ga,-6.924,-0.02,5.85566694633047,F-43m,0.996,2.527,-1.991,0.471,-0.017
717099,Cr2NiGe,Cr,Ni,Ge,-7.306,-0.004,5.759688769191759,F-43m,1.928,2.316,-0.996,0.573,-0.004
387451,Cr2InNi,Cr,Ni,In,-6.411,0.415,6.229069182388587,Fm-3m,7.252,3.185,3.185,0.637,-0.037
388153,MgCr2Ni,Cr,Ni,Mg,-5.816,0.715,5.890610363905312,Fm-3m,-0.032,-0.016,-0.016,-0.01,-0.001
388623,Cr2NiPb,Cr,Ni,Pb,-6.509,0.563,6.340994115460455,Fm-3m,7.148,3.219,3.219,0.524,-0.093
717103,Cr2NiSb,Cr,Ni,Sb,-7.017,0.159,6.129623885938532,F-43m,1.32,3.023,-2.104,0.302,0.021
717096,Cr2SiNi,Cr,Ni,Si,-7.697,-0.195,5.6926755207983915,F-43m,1.896,2.12,-0.828,0.585,-0.005
733379,Cr2NiSn,Cr,Ni,Sn,-7.009,0.116,6.154505698540873,F-43m,0.848,3.042,-2.534,0.314,-0.008
1123498,ZnCr2Ni,Cr,Ni,Zn,-6.245,0.217,5.744698326810607,F-43m,-0.008,0.005,-0.006,-0.002,0.0
735657,AlCr2Pd,Cr,Pd,Al,-6.877,0.108,6.06216843760082,F-43m,6.992,3.203,3.383,0.28,-0.058
387582,Cr2AsPd,Cr,Pd,As,-7.078,0.134,6.189785470036187,Fm-3m,7.152,3.358,3.358,0.199,-0.114
735656,Cr2BPd,Cr,Pd,B,-7.332,0.386,5.706957749537384,F-43m,1.008,2.43,-1.675,0.229,0.024
386692,Cr2BiPd,Cr,Pd,Bi,-6.705,0.353,6.504785430640291,Fm-3m,7.436,3.498,3.498,0.14,-0.13
388305,Cr2GaPd,Cr,Pd,Ga,-6.686,0.12,6.18797530613951,Fm-3m,6.88,3.202,3.202,0.263,-0.075
388306,Cr2GePd,Cr,Pd,Ge,-7.091,0.113,6.190481405086243,Fm-3m,6.652,3.177,3.177,0.186,-0.161
735663,Cr2InPd,Cr,Pd,In,-6.484,0.245,6.368201646771565,F-43m,7.072,3.34,3.433,0.165,-0.113
386222,MgCr2Pd,Cr,Pd,Mg,-6.069,0.366,6.2689494223720565,Fm-3m,7.452,3.358,3.358,0.279,-0.001
386584,Cr2PdPb,Cr,Pd,Pb,-6.587,0.387,6.447947186402304,Fm-3m,7.144,3.373,3.373,0.192,-0.123
386341,Cr2SbPd,Cr,Pd,Sb,-6.915,0.162,6.401562118685417,Fm-3m,7.284,3.425,3.425,0.178,-0.128
735658,Cr2SiPd,Cr,Pd,Si,-7.509,-0.105,5.923624515283474,F-43m,1.976,2.748,-1.132,0.305,0.011
387068,Cr2SnPd,Cr,Pd,Sn,-6.879,0.148,6.355551389814393,Fm-3m,7.04,3.308,3.308,0.232,-0.136
735659,ZnCr2Pd,Cr,Pd,Zn,-6.133,0.232,5.938180051377907,F-43m,0.008,-0.006,-0.002,-0.001,0.0
744738,AlCr2Pt,Cr,Pt,Al,-7.504,-0.3,6.048350072585788,F-43m,0.996,2.84,-2.071,0.218,0.001
387895,Cr2AsPt,Cr,Pt,As,-7.315,0.116,5.979485494673213,Fm-3m,0.0,0.0,0.0,0.0,0.0
744737,Cr2BPt,Cr,Pt,B,-7.664,0.274,5.717418758082929,F-43m,1.028,2.275,-1.436,0.149,0.023
388703,Cr2BiPt,Cr,Pt,Bi,-6.958,0.32,6.512968192707344,Fm-3m,7.352,3.464,3.464,0.126,-0.114
744741,Cr2GaPt,Cr,Pt,Ga,-7.17,-0.144,5.975305913855298,F-43m,1.008,2.781,-2.001,0.203,-0.004
386967,Cr2GePt,Cr,Pt,Ge,-7.303,0.121,6.030951174040765,Fm-3m,2.224,1.108,1.108,0.006,-0.052
744744,Cr2InPt,Cr,Pt,In,-6.786,0.162,6.4048140862649845,F-43m,7.056,3.24,3.518,0.129,-0.098
388225,MgCr2Pt,Cr,Pt,Mg,-6.463,0.19,6.180165543335971,Fm-3m,6.252,2.898,2.898,0.218,-0.004
386525,Cr2PtPb,Cr,Pt,Pb,-6.845,0.35,6.424644562389906,Fm-3m,7.1,3.326,3.326,0.215,-0.089
387174,Cr2SbPt,Cr,Pt,Sb,-7.05,0.248,6.173595652820021,Fm-3m,0.044,0.024,0.024,-0.003,-0.001
744739,Cr2SiPt,Cr,Pt,Si,-7.827,-0.202,5.941203488193353,F-43m,1.988,2.691,-1.009,0.246,0.009
387768,Cr2SnPt,Cr,Pt,Sn,-7.15,0.097,6.3595100027281735,Fm-3m,7.02,3.277,3.277,0.255,-0.103
1123499,ZnCr2Pt,Cr,Pt,Zn,-6.5,0.085,5.947090355256949,F-43m,0.004,-0.005,0.006,-0.001,0.0
735671,AlCr2Rh,Cr,Rh,Al,-7.681,-0.173,5.885995704465508,F-43m,-0.096,0.005,-0.061,-0.015,0.001
735676,Cr2AsRh,Cr,Rh,As,-7.755,-0.021,5.967078957115752,F-43m,1.988,2.741,-1.138,0.27,0.046
735670,Cr2BRh,Cr,Rh,B,-8.039,0.202,5.577974710673337,F-43m,-0.108,-0.023,-0.066,-0.013,0.002
735681,Cr2BiRh,Cr,Rh,Bi,-7.133,0.449,6.440241236800075,F-43m,8.008,3.552,3.711,0.342,-0.048
735674,Cr2GaRh,Cr,Rh,Ga,-7.373,-0.043,5.90410515795004,F-43m,0.028,0.01,0.011,0.002,0.0
735675,Cr2GeRh,Cr,Rh,Ge,-7.851,-0.123,5.996442335365106,F-43m,1.012,2.719,-1.962,0.227,0.011
735677,Cr2InRh,Cr,Rh,In,-6.96,0.292,6.127493917080567,F-43m,-0.056,0.004,-0.041,0.002,0.001
388525,MgCr2Rh,Cr,Rh,Mg,-6.603,0.354,6.10854307772151,Fm-3m,5.468,2.474,2.474,0.288,0.001
735680,Cr2RhPb,Cr,Rh,Pb,-7.054,0.443,6.378705266237463,F-43m,6.984,3.237,3.409,0.174,-0.097
735679,Cr2SbRh,Cr,Rh,Sb,-7.58,0.021,6.194236753314224,F-43m,1.984,3.048,-1.494,0.328,0.025
735672,Cr2SiRh,Cr,Rh,Si,-8.203,-0.276,5.871953452894962,F-43m,1.0,2.32,-1.512,0.189,0.007
735678,Cr2SnRh,Cr,Rh,Sn,-7.593,-0.043,6.251257347035586,F-43m,1.012,3.121,-2.465,0.292,0.006
1123507,ZnCr2Rh,Cr,Rh,Zn,-6.885,0.003,6.008728038142713,F-43m,0.872,2.959,-2.298,0.057,0.054
735629,AlCr2Ru,Cr,Ru,Al,-8.104,-0.112,5.877053454509727,F-43m,0.016,0.001,0.014,0.003,-0.001
735634,Cr2AsRu,Cr,Ru,As,-8.2,0.017,5.931366038296069,F-43m,1.024,2.294,-1.307,-0.072,0.05
735628,Cr2BRu,Cr,Ru,B,-8.543,0.181,5.569218872633526,F-43m,0.132,-0.034,0.129,0.02,-0.002
735639,Cr2BiRu,Cr,Ru,Bi,-7.508,0.556,6.350530056813266,F-43m,2.908,2.471,-0.383,0.041,-0.008
735632,Cr2GaRu,Cr,Ru,Ga,-7.796,0.016,5.894910865789762,F-43m,0.064,0.038,0.013,0.006,-0.001
735633,Cr2GeRu,Cr,Ru,Ge,-8.197,0.014,5.894143379208623,F-43m,0.536,-0.002,0.479,0.051,-0.005
735635,Cr2InRu,Cr,Ru,In,-7.328,0.406,6.113113417946168,F-43m,0.984,0.562,0.266,0.038,-0.014
386500,MgCr2Ru,Cr,Ru,Mg,-7.027,0.413,6.039443832829506,Fm-3m,3.976,2.001,2.001,-0.219,-0.001
735638,Cr2RuPb,Cr,Ru,Pb,-7.341,0.64,6.352909572450971,F-43m,2.612,1.782,0.721,0.033,-0.014
735637,Cr2SbRu,Cr,Ru,Sb,-7.971,0.113,6.182957009441219,F-43m,1.02,2.751,-1.834,0.012,0.029
735630,Cr2SiRu,Cr,Ru,Si,-8.628,-0.217,5.792777374979644,F-43m,0.32,-0.11,0.321,0.037,-0.005
735636,Cr2SnRu,Cr,Ru,Sn,-7.803,0.23,6.117819434753109,F-43m,1.976,0.928,0.879,0.086,-0.014
748843,ZnCr2Ru,Cr,Ru,Zn,-7.174,0.197,5.876590183701051,F-43m,0.02,-0.001,0.02,-0.001,0.0
736007,AlFe2Ag,Fe,Ag,Al,-5.72,0.075,6.021846286016738,F-43m,4.648,2.589,2.152,0.009,-0.036
526237,Fe2AgAs,Fe,Ag,As,-5.687,0.336,6.0325636887116705,Fm-3m,4.716,2.377,2.377,0.052,-0.04
736006,Fe2AgB,Fe,Ag,B,-5.828,0.701,5.735309696622672,F-43m,4.724,2.597,2.12,0.044,-0.044
526016,Fe2AgBi,Fe,Ag,Bi,-5.33,0.539,6.392700009959368,Fm-3m,4.872,2.479,2.479,0.021,-0.055
736010,GaFe2Ag,Fe,Ag,Ga,-5.453,0.164,6.0711528759307205,F-43m,4.908,2.667,2.295,0.017,-0.065
736011,Fe2AgGe,Fe,Ag,Ge,-5.734,0.281,6.113684230164616,F-43m,5.14,2.743,2.358,0.025,-0.014
736013,InFe2Ag,Fe,Ag,In,-5.252,0.288,6.3021576551731044,F-43m,5.144,2.763,2.456,0.01,-0.067
525714,MgFe2Ag,Fe,Ag,Mg,-4.826,0.419,6.1309011570498795,Fm-3m,5.092,2.637,2.637,0.006,-0.04
736016,Fe2AgPb,Fe,Ag,Pb,-5.262,0.523,6.476808874325824,F-43m,5.48,2.852,2.592,0.02,-0.007
527125,Fe2AgSb,Fe,Ag,Sb,-5.543,0.346,6.234699641074287,Fm-3m,4.552,2.309,2.309,0.038,-0.049
736008,Fe2SiAg,Fe,Ag,Si,-6.007,0.208,5.95371798790393,F-43m,4.62,2.595,2.043,0.01,-0.021
736014,Fe2AgSn,Fe,Ag,Sn,-5.573,0.265,6.308194593842797,F-43m,5.088,2.754,2.348,0.007,-0.047
736009,ZnFe2Ag,Fe,Ag,Zn,-4.945,0.231,6.047912673822867,F-43m,4.92,2.641,2.392,0.016,-0.057
743862,AlFe2Au,Fe,Au,Al,-6.007,-0.1,6.05330284333693,F-43m,5.06,2.728,2.3,0.056,-0.025
525393,Fe2AsAu,Fe,Au,As,-5.901,0.233,6.079533666911137,Fm-3m,4.712,2.374,2.374,0.068,-0.059
743861,Fe2BAu,Fe,Au,B,-6.043,0.597,5.7808324850662185,F-43m,5.14,2.698,2.291,0.098,-0.013
527356,Fe2BiAu,Fe,Au,Bi,-5.55,0.43,6.410659320179263,Fm-3m,4.808,2.451,2.451,0.03,-0.074
743865,GaFe2Au,Fe,Au,Ga,-5.683,0.046,6.036957080176977,F-43m,5.132,2.728,2.346,0.059,-0.042
525885,Fe2GeAu,Fe,Au,Ge,-5.942,0.185,6.084291752833136,Fm-3m,4.876,2.459,2.459,0.072,-0.078
743868,InFe2Au,Fe,Au,In,-5.478,0.173,6.325170153785665,F-43m,5.312,2.814,2.506,0.034,-0.052
1141786,MgFe2Au,Fe,Au,Mg,-5.323,0.038,6.168694082176244,F-43m,5.12,5.0,5.0,0.0,0.0
527349,Fe2PbAu,Fe,Au,Pb,-5.465,0.432,6.398176563864024,Fm-3m,5.168,2.618,2.618,0.04,-0.064
526531,Fe2SbAu,Fe,Au,Sb,-5.751,0.249,6.269492212055914,Fm-3m,4.504,2.292,2.292,0.051,-0.064
527076,Fe2SiAu,Fe,Au,Si,-6.206,0.121,5.9283325564401705,Fm-3m,3.924,2.027,2.027,0.062,-0.093
526626,Fe2SnAu,Fe,Au,Sn,-5.761,0.188,6.239772071446631,Fm-3m,4.548,2.336,2.336,0.038,-0.128
1122457,ZnFe2Au,Fe,Au,Zn,-5.218,0.069,6.058247522677411,F-43m,5.108,2.449,2.693,0.043,-0.047
736021,AlCdFe2,Fe,Cd,Al,-5.122,0.194,5.997332147269451,F-43m,4.276,2.329,2.072,-0.036,-0.029
526759,CdFe2As,Fe,Cd,As,-5.155,0.387,6.0996685298698425,Fm-3m,4.248,2.211,2.211,-0.053,-0.047
736020,CdFe2B,Fe,Cd,B,-5.272,0.777,5.828319683017481,F-43m,4.632,2.446,2.181,-0.014,-0.02
526766,CdFe2Bi,Fe,Cd,Bi,-4.82,0.569,6.457809581760473,Fm-3m,4.328,2.282,2.282,-0.067,-0.066
736024,CdGaFe2,Fe,Cd,Ga,-4.893,0.244,6.153238209173279,F-43m,4.784,2.527,2.331,-0.028,-0.048
526656,CdFe2Ge,Fe,Cd,Ge,-5.2,0.335,6.121806748657982,Fm-3m,4.372,2.262,2.262,-0.033,-0.065
736027,CdInFe2,Fe,Cd,In,-4.699,0.36,6.417400564471839,F-43m,5.04,2.636,2.495,-0.029,-0.052
527738,MgCdFe2,Fe,Cd,Mg,-4.377,0.387,6.194375752859933,Fm-3m,4.884,2.542,2.542,-0.051,-0.037
526516,CdFe2Pb,Fe,Cd,Pb,-4.732,0.573,6.410399758298658,Fm-3m,4.62,2.396,2.396,-0.049,-0.054
526967,CdFe2Sb,Fe,Cd,Sb,-5.017,0.391,6.285327406334064,Fm-3m,3.976,2.089,2.089,-0.051,-0.054
526042,CdFe2Si,Fe,Cd,Si,-5.457,0.278,5.926359127281644,Fm-3m,3.176,1.692,1.692,-0.027,-0.079
527101,CdFe2Sn,Fe,Cd,Sn,-5.033,0.324,6.286947023079417,Fm-3m,4.172,2.189,2.189,-0.046,-0.105
748579,ZnCdFe2,Fe,Cd,Zn,-4.446,0.249,6.133595871979628,F-43m,4.816,2.494,2.45,-0.042,-0.051
716726,AlFe2Co,Fe,Co,Al,-7.135,-0.273,5.6713655757766,F-43m,4.924,0.0,0.0,0.0,0.0
733724,Fe2CoAs,Fe,Co,As,-7.149,-0.06,5.732065100169379,F-43m,5.912,2.778,1.858,1.217,0.034
733718,Fe2CoB,Fe,Co,B,-7.531,0.065,5.3422282125192515,F-43m,4.328,0.0,0.0,0.0,0.0
716736,Fe2CoBi,Fe,Co,Bi,-6.552,0.384,6.027576763211443,F-43m,5.984,2.835,1.993,1.167,-0.007
733722,GaFe2Co,Fe,Co,Ga,-6.844,-0.16,5.7121930432447465,F-43m,5.08,2.558,1.665,1.018,-0.093
716730,Fe2CoGe,Fe,Co,Ge,-7.251,-0.168,5.707612686596589,F-43m,5.064,2.677,1.471,0.98,-0.05
733725,InFe2Co,Fe,Co,In,-6.473,0.134,5.975903354834519,F-43m,5.932,2.643,2.22,1.247,-0.099
526823,MgFe2Co,Fe,Co,Mg,-6.118,0.194,5.791505599670521,Fm-3m,6.216,2.367,2.367,1.669,-0.03
733728,Fe2CoPb,Fe,Co,Pb,-6.495,0.357,6.110686275945821,F-43m,5.884,2.767,2.101,1.148,-0.061
716734,Fe2CoSb,Fe,Co,Sb,-6.937,0.019,5.960030629093527,F-43m,5.888,2.831,1.909,1.176,-0.008
733720,Fe2CoSi,Fe,Co,Si,-7.657,-0.374,5.575059153320083,F-43m,4.948,2.637,1.367,0.996,-0.025
733726,Fe2CoSn,Fe,Co,Sn,-6.918,-0.014,5.951309647452901,F-43m,5.336,2.713,1.749,1.002,-0.082
748020,ZnFe2Co,Fe,Co,Zn,-6.23,0.013,5.728654315982437,F-43m,5.896,2.48,2.249,1.303,-0.077
733120,AlFe2Cu,Fe,Cu,Al,-6.139,-0.12,5.76611233863637,F-43m,4.16,1.874,2.355,0.016,-0.035
525931,Fe2CuAs,Fe,Cu,As,-6.096,0.15,5.675839047410712,Fm-3m,1.452,0.734,0.734,0.074,-0.052
526628,Fe2CuB,Fe,Cu,B,-6.445,0.308,5.395515252174211,Fm-3m,3.324,1.681,1.681,0.129,-0.127
696504,Fe2CuBi,Fe,Cu,Bi,-5.627,0.465,6.25589417298193,F-43m,5.008,2.705,2.254,0.025,-0.003
733845,GaFe2Cu,Fe,Cu,Ga,-5.862,-0.021,5.792300524683204,F-43m,4.388,2.431,1.991,0.024,-0.066
733124,Fe2CuGe,Fe,Cu,Ge,-6.189,0.05,5.7988106955047165,F-43m,4.356,1.871,2.477,0.018,-0.034
733848,InFe2Cu,Fe,Cu,In,-5.575,0.188,6.053593930488124,F-43m,4.772,2.572,2.255,0.02,-0.069
526696,MgFe2Cu,Fe,Cu,Mg,-5.137,0.332,5.866689623417973,Fm-3m,4.652,2.375,2.375,0.053,-0.037
733851,Fe2CuPb,Fe,Cu,Pb,-5.573,0.436,6.202149792127899,F-43m,5.052,2.697,2.337,0.026,-0.027
733850,Fe2CuSb,Fe,Cu,Sb,-5.908,0.205,6.0325636887116705,F-43m,4.18,2.563,1.698,-0.019,-0.026
733843,Fe2CuSi,Fe,Cu,Si,-6.539,-0.099,5.657236140546423,F-43m,3.68,2.292,1.465,-0.009,-0.028
716829,Fe2CuSn,Fe,Cu,Sn,-5.946,0.116,6.059264543480697,F-43m,4.684,2.595,2.104,0.013,-0.053
748122,ZnFe2Cu,Fe,Cu,Zn,-5.311,0.088,5.789755996092771,F-43m,4.572,2.447,2.166,0.046,-0.053
744279,AlFe2Ir,Fe,Ir,Al,-7.689,-0.385,5.893375692703912,F-43m,5.044,2.759,2.02,0.325,-0.028
744284,Fe2AsIr,Fe,Ir,As,-7.475,0.056,5.979037961889963,F-43m,5.6,2.871,2.205,0.449,0.021
744278,Fe2BIr,Fe,Ir,B,-7.894,0.143,5.602040073040208,F-43m,4.78,2.608,1.881,0.253,-0.024
744289,Fe2BiIr,Fe,Ir,Bi,-6.968,0.41,6.273424629527979,F-43m,5.828,2.986,2.349,0.465,0.009
744282,GaFe2Ir,Fe,Ir,Ga,-7.34,-0.214,5.927725487411664,F-43m,5.144,2.765,2.129,0.298,-0.056
744283,Fe2GeIr,Fe,Ir,Ge,-7.655,-0.132,5.927725487411664,F-43m,5.008,2.831,1.921,0.261,-0.031
744285,InFe2Ir,Fe,Ir,In,-6.951,0.097,6.06811273877945,F-43m,5.296,2.798,2.257,0.319,-0.059
1147014,MgFe2Ir,Fe,Ir,Mg,-6.763,-0.01,6.0163995792389775,F-43m,5.728,2.722,2.606,0.493,-0.023
744288,Fe2IrPb,Fe,Ir,Pb,-6.931,0.362,6.285867371320834,F-43m,5.46,2.911,2.315,0.292,-0.042
744287,Fe2SbIr,Fe,Ir,Sb,-7.289,0.108,6.076646349955732,F-43m,5.332,2.823,2.086,0.394,-0.005
744280,Fe2SiIr,Fe,Ir,Si,-8.074,-0.35,5.811313628452157,F-43m,4.836,2.807,1.752,0.274,-0.015
744286,Fe2SnIr,Fe,Ir,Sn,-7.376,-0.03,6.120098536012995,F-43m,5.16,2.887,2.043,0.278,-0.05
1122455,ZnFe2Ir,Fe,Ir,Zn,-6.739,-0.055,5.926359127281644,F-43m,5.696,2.587,2.703,0.447,-0.034
733772,LiAlFe2,Fe,Li,Al,-5.643,-0.078,5.713010191493941,F-43m,3.46,2.189,1.486,-0.052,-0.051
716767,LiFe2As,Fe,Li,As,-5.928,-0.137,5.711702642053872,F-43m,4.008,2.606,1.401,-0.009,-0.013
733782,LiFe2Bi,Fe,Li,Bi,-5.441,0.197,6.187000163684306,F-43m,4.516,2.671,1.919,-0.016,-0.04
733775,LiGaFe2,Fe,Li,Ga,-5.451,-0.065,5.74582936380579,F-43m,3.796,2.284,1.687,-0.043,-0.102
733776,LiFe2Ge,Fe,Li,Ge,-5.91,-0.126,5.684104683611438,F-43m,3.012,2.404,0.698,-0.016,-0.061
716768,LiInFe2,Fe,Li,In,-5.194,0.114,6.0480584804400985,F-43m,4.436,2.498,2.136,-0.042,-0.106
733702,LiMgFe2,Fe,Li,Mg,-4.691,0.323,5.73725469370153,F-43m,3.688,1.803,2.114,-0.071,-0.037
716771,LiFe2Pb,Fe,Li,Pb,-5.323,0.231,6.171635958802554,F-43m,4.74,2.651,2.186,-0.025,-0.064
733780,LiFe2Sb,Fe,Li,Sb,-5.712,-0.055,5.977396434887362,F-43m,4.012,2.63,1.458,-0.015,-0.037
716763,LiFe2Si,Fe,Li,Si,-6.218,-0.234,5.560780388365257,F-43m,3.012,2.323,0.783,-0.019,-0.04
716769,LiFe2Sn,Fe,Li,Sn,-5.636,-0.03,6.01359878518486,F-43m,4.284,2.533,1.884,-0.027,-0.093
749035,LiZnFe2,Fe,Li,Zn,-4.828,0.116,5.763865717771616,F-43m,4.112,2.288,2.029,-0.056,-0.078
733705,MgAlFe2,Fe,Mg,Al,-5.454,0.022,5.978888769406573,F-43m,3.908,2.24,1.918,-0.023,-0.045
526389,MgFe2As,Fe,Mg,As,-5.59,0.112,5.792459483505554,Fm-3m,-0.004,-0.002,-0.002,0.0,0.0
733715,MgFe2Bi,Fe,Mg,Bi,-5.116,0.433,6.451408862364207,F-43m,4.724,2.632,2.218,-0.015,-0.006
733708,MgGaFe2,Fe,Mg,Ga,-5.26,0.037,6.005180710603966,F-43m,4.28,2.347,2.09,-0.019,-0.08
733709,MgFe2Ge,Fe,Mg,Ge,-5.623,0.073,5.979187146928248,F-43m,3.996,2.433,1.704,-0.012,-0.049
733711,MgInFe2,Fe,Mg,In,-5.012,0.207,6.262428601728084,F-43m,4.628,2.478,2.318,-0.02,-0.078
733714,MgFe2Pb,Fe,Mg,Pb,-5.026,0.44,6.259163092805018,F-43m,4.456,2.489,2.089,-0.012,-0.037
526905,MgFe2Sb,Fe,Mg,Sb,-5.421,0.148,6.054030508733579,Fm-3m,-0.392,-0.214,-0.214,0.005,0.013
733712,MgFe2Sn,Fe,Mg,Sn,-5.366,0.152,6.247706892101213,F-43m,4.248,2.489,1.956,-0.016,-0.073
733707,MgZnFe2,Fe,Mg,Zn,-4.732,0.124,5.983212332101065,F-43m,4.308,0.0,0.0,0.0,0.0
525744,MnFe2As,Fe,Mn,As,-7.628,-0.054,5.668379336220137,Fm-3m,4.004,0.627,0.627,2.704,-0.01
527255,MnFe2B,Fe,Mn,B,-8.037,0.043,5.323663032142041,Fm-3m,2.032,-0.094,-0.094,2.152,0.008
526974,MnFe2Bi,Fe,Mn,Bi,-6.992,0.428,6.084579882578214,Fm-3m,5.824,1.525,1.525,2.847,-0.075
525371,MnGaFe2,Fe,Mn,Ga,-7.242,-0.074,5.668711296007504,Fm-3m,2.036,-0.238,-0.238,2.457,-0.012
526624,MnFe2Ge,Fe,Mn,Ge,-7.68,-0.114,5.688228502263636,Fm-3m,3.008,0.161,0.161,2.644,-0.019
716756,MnInFe2,Fe,Mn,In,-6.898,0.192,6.083571309053272,F-43m,7.984,2.462,2.408,3.183,-0.11
526126,MgMnFe2,Fe,Mn,Mg,-6.46,0.337,5.752122719727653,Fm-3m,1.016,-0.735,-0.735,2.467,-0.007
733755,MnFe2Pb,Fe,Mn,Pb,-6.914,0.423,6.1967377913060435,F-43m,8.02,2.577,2.332,3.14,-0.076
526479,MnFe2Sb,Fe,Mn,Sb,-7.377,0.063,5.919213433358862,Fm-3m,4.052,0.599,0.599,2.867,-0.033
31335,MnFe2Si,Fe,Mn,Si,-7.888,-0.339,5.502566295495331,Fm-3m,-0.756,5.0,5.0,5.0,0.0
526542,MnFe2Sn,Fe,Mn,Sn,-7.283,0.106,5.916472210320946,Fm-3m,3.036,0.09,0.09,2.832,-0.036
748224,MnZnFe2,Fe,Mn,Zn,-6.639,0.088,5.803723332625852,F-43m,7.268,2.063,2.348,2.914,-0.074
733691,AlFe2Ni,Fe,Ni,Al,-6.772,-0.29,5.707612686596589,F-43m,4.708,2.593,1.772,0.444,-0.033
733696,Fe2NiAs,Fe,Ni,As,-6.717,-0.009,5.774441641886936,F-43m,5.3,2.721,2.092,0.396,0.039
733701,Fe2NiBi,Fe,Ni,Bi,-6.222,0.333,6.185048956078526,F-43m,5.572,2.843,2.323,0.367,0.01
733694,GaFe2Ni,Fe,Ni,Ga,-6.485,-0.182,5.73401229865467,F-43m,4.824,2.624,1.847,0.426,-0.067
733695,Fe2NiGe,Fe,Ni,Ge,-6.838,-0.137,5.755022706465332,F-43m,5.028,2.671,1.956,0.414,-0.025
733697,InFe2Ni,Fe,Ni,In,-6.146,0.08,5.97769496140411,F-43m,5.08,2.683,2.115,0.391,-0.075
527179,MgFe2Ni,Fe,Ni,Mg,-5.682,0.249,5.81210314475517,Fm-3m,5.34,2.408,2.408,0.663,-0.027