id,formula,X,Y,Z,energy,formation,lat,spacegroup,tot_mag,X1_mag,X2_mag,Y_mag,Z_mag
562948,Ti2FeAs,Ti,Fe,As,-7.394,-0.305,6.110400603040333,Fm-3m,-0.0,0.001,0.001,-0.004,0.0
561743,Ti2FeB,Ti,Fe,B,-7.779,-0.184,5.792300524683204,Fm-3m,0.984,-0.309,-0.309,1.426,0.091
716653,Ti2FeBi,Ti,Fe,Bi,-6.813,0.123,6.428389506903595,F-43m,3.008,0.46,1.578,0.892,-0.004
562409,Ti2GaFe,Ti,Fe,Ga,-7.043,-0.36,6.150278701539056,Fm-3m,1.004,-0.334,-0.334,1.638,0.031
734450,Ti2FeGe,Ti,Fe,Ge,-7.393,-0.312,6.047912673822867,F-43m,2.0,0.784,1.438,-0.155,-0.005
562748,Ti2InFe,Ti,Fe,In,-6.685,-0.079,6.339667408838311,Fm-3m,1.02,-0.433,-0.433,1.897,0.028
561649,MgTi2Fe,Ti,Fe,Mg,-6.272,0.04,6.216121760856351,Fm-3m,0.0,0.0,0.0,0.0,0.0
716652,Ti2FePb,Ti,Fe,Pb,-6.747,0.105,6.40520410052038,F-43m,2.0,0.966,1.539,-0.574,-0.006
561360,Ti2FeSb,Ti,Fe,Sb,-7.178,-0.223,6.354891141379369,Fm-3m,1.8,-0.228,-0.228,2.199,0.043
562293,Ti2FeSi,Ti,Fe,Si,-7.745,-0.463,6.075779619613074,Fm-3m,1.976,-0.051,-0.051,1.974,0.051
562736,Ti2FeSn,Ti,Fe,Sn,-7.146,-0.241,6.395700236902751,Fm-3m,2.0,-0.144,-0.144,2.224,0.045
561407,Ti2ZnFe,Ti,Fe,Zn,-6.475,-0.232,6.073611711193965,Fm-3m,0.172,-0.397,-0.397,1.009,-0.014
744265,Ti2AlIr,Ti,Ir,Al,-7.7,-0.701,6.242099884983352,F-43m,1.996,0.628,1.418,-0.071,-0.011
563416,Ti2AsIr,Ti,Ir,As,-7.744,-0.518,6.294763432221042,Fm-3m,0.208,0.082,0.082,0.012,0.002
744264,Ti2BIr,Ti,Ir,B,-7.957,-0.225,5.922712416644792,F-43m,1.96,0.705,1.398,-0.019,-0.026
563236,Ti2BiIr,Ti,Ir,Bi,-7.206,-0.134,6.600918145913575,Fm-3m,2.028,0.858,0.858,0.124,0.015
744269,Ti2GeIr,Ti,Ir,Ge,-7.761,-0.542,6.239224098134651,F-43m,2.776,0.826,1.775,0.117,0.006
744271,Ti2InIr,Ti,Ir,In,-7.17,-0.427,6.434449649830166,F-43m,2.0,0.661,1.385,-0.089,-0.011
562351,MgTi2Ir,Ti,Ir,Mg,-6.822,-0.374,6.343778393751273,Fm-3m,0.0,0.0,0.0,0.0,0.0
744274,Ti2IrPb,Ti,Ir,Pb,-7.149,-0.16,6.543752176059376,F-43m,2.876,0.864,1.769,0.097,0.0
561665,Ti2SbIr,Ti,Ir,Sb,-7.433,-0.341,6.484047666739566,Fm-3m,1.236,0.493,0.493,0.099,0.008
744266,Ti2SiIr,Ti,Ir,Si,-8.074,-0.655,6.156476311606184,F-43m,2.712,0.788,1.756,0.111,-0.012
744272,Ti2SnIr,Ti,Ir,Sn,-7.531,-0.49,6.4552508170969505,F-43m,2.892,0.851,1.801,0.106,0.011
562118,Ti2ZnIr,Ti,Ir,Zn,-6.902,-0.523,6.246066858716479,Fm-3m,0.0,0.0,0.0,0.0,0.0
563421,LiTi2Al,Ti,Li,Al,-5.335,-0.075,6.325969897144015,Fm-3m,0.0,0.0,0.0,0.0,0.0
561530,LiTi2As,Ti,Li,As,-5.799,-0.313,6.187000163684306,Fm-3m,0.0,0.0,0.0,0.0,0.0
561593,LiTi2B,Ti,Li,B,-5.997,-0.005,5.778277844072855,Fm-3m,0.0,0.0,0.0,0.0,0.0
716641,LiTi2Bi,Ti,Li,Bi,-5.253,0.079,6.7357265833883,F-43m,3.628,1.693,1.526,0.014,-0.047
561739,LiTi2Ga,Ti,Li,Ga,-5.255,-0.174,6.259026955973671,Fm-3m,0.0,0.0,0.0,0.0,0.0
562155,LiTi2Ge,Ti,Li,Ge,-5.76,-0.281,6.224667595138401,Fm-3m,0.0,0.0,0.0,0.0,0.0
734438,LiTi2In,Ti,Li,In,-4.993,0.01,6.615208271429158,F-43m,3.824,1.861,1.669,0.005,-0.043
734362,LiMgTi2,Ti,Li,Mg,-4.399,0.31,6.646744972658623,F-43m,3.208,1.492,1.5,-0.014,-0.014
734441,LiTi2Pb,Ti,Li,Pb,-5.163,0.086,6.705497826459471,F-43m,3.712,1.811,1.559,0.009,-0.052
562219,LiTi2Sb,Ti,Li,Sb,-5.518,-0.165,6.504533326716674,Fm-3m,0.0,0.0,0.0,0.0,0.0
563386,LiTi2Si,Ti,Li,Si,-6.002,-0.322,6.144209854304941,Fm-3m,0.0,0.0,0.0,0.0,0.0
561584,LiTi2Sn,Ti,Li,Sn,-5.451,-0.149,6.537144335850295,Fm-3m,0.0,0.0,0.0,0.0,0.0
562486,LiTi2Zn,Ti,Li,Zn,-4.564,0.076,6.252076110286211,Fm-3m,0.0,0.0,0.0,0.0,0.0
563046,MgTi2Al,Ti,Mg,Al,-5.258,-0.087,6.499360883906178,Fm-3m,0.0,0.0,0.0,0.0,0.0
562165,MgTi2As,Ti,Mg,As,-5.492,-0.094,6.457170080698503,Fm-3m,0.0,0.0,0.0,0.0,0.0
561393,MgTi2B,Ti,Mg,B,-5.599,0.306,6.056357863315065,Fm-3m,0.0,0.0,0.0,0.0,0.0
562743,MgTi2Bi,Ti,Mg,Bi,-5.084,0.16,6.831686032954961,Fm-3m,0.052,0.016,0.016,0.0,-0.001
563359,MgTi2Ga,Ti,Mg,Ga,-5.115,-0.122,6.455378803512058,Fm-3m,0.0,0.0,0.0,0.0,0.0
561045,MgTi2Ge,Ti,Mg,Ge,-5.502,-0.112,6.425419736693084,Fm-3m,0.0,0.0,0.0,0.0,0.0
561117,MgTi2Pb,Ti,Mg,Pb,-5.003,0.158,6.756819810582752,Fm-3m,0.008,0.003,0.003,0.0,0.0
562680,MgTi2Sb,Ti,Mg,Sb,-5.306,-0.042,6.697779021777647,Fm-3m,0.004,0.0,0.0,0.0,0.0
561092,MgTi2Si,Ti,Mg,Si,-5.737,-0.147,6.341789873028633,Fm-3m,0.0,0.0,0.0,0.0,0.0
562974,MgTi2Sn,Ti,Mg,Sn,-5.298,-0.085,6.673078276157206,Fm-3m,0.0,0.0,0.0,0.0,0.0
562859,MgTi2Zn,Ti,Mg,Zn,-4.518,0.033,6.450768091530811,Fm-3m,0.0,0.0,0.0,0.0,0.0
561691,Ti2MnAl,Ti,Mn,Al,-7.36,-0.318,6.12877207604903,Fm-3m,0.0,0.0,0.0,0.0,0.0
561523,Ti2MnAs,Ti,Mn,As,-7.631,-0.362,6.154224079354127,Fm-3m,0.392,-0.808,-0.808,1.953,0.051
563037,Ti2MnB,Ti,Mn,B,-7.956,-0.18,5.772041424783626,Fm-3m,0.0,-0.001,-0.001,0.002,0.0
716629,Ti2MnBi,Ti,Mn,Bi,-6.984,0.131,6.410659320179263,F-43m,1.996,0.715,1.526,-0.321,0.002
561150,Ti2MnGa,Ti,Mn,Ga,-7.22,-0.356,6.122091358098345,Fm-3m,0.008,-0.004,-0.004,0.02,0.0
562395,Ti2MnGe,Ti,Mn,Ge,-7.624,-0.362,6.144492392178298,Fm-3m,0.736,-0.436,-0.436,1.539,0.026
716625,Ti2MnIn,Ti,Mn,In,-6.876,-0.091,6.320901436340071,F-43m,0.004,-1.322,-1.425,2.679,-0.013
561900,MgTi2Mn,Ti,Mn,Mg,-6.432,0.06,6.239635087141711,Fm-3m,0.0,0.0,0.0,0.0,0.0
561490,Ti2MnPb,Ti,Mn,Pb,-6.954,0.078,6.516109940673045,Fm-3m,0.876,-0.742,-0.742,2.34,0.036
716627,Ti2MnSb,Ti,Mn,Sb,-7.311,-0.176,6.308596645761913,F-43m,1.988,0.656,1.477,-0.189,-0.003
561383,Ti2MnSi,Ti,Mn,Si,-7.889,-0.427,6.047912673822867,Fm-3m,0.124,-0.31,-0.31,0.752,0.011
562316,Ti2MnSn,Ti,Mn,Sn,-7.277,-0.192,6.411178380893258,Fm-3m,0.788,-0.632,-0.632,2.023,0.024
562732,Ti2MnZn,Ti,Mn,Zn,-6.634,-0.212,6.085012026037236,Fm-3m,0.0,0.0,0.0,0.0,0.0
734351,Ti2AlNi,Ti,Ni,Al,-6.478,-0.301,6.177651065994611,F-43m,3.0,1.135,1.721,0.154,-0.013
561130,Ti2NiAs,Ti,Ni,As,-6.885,-0.481,6.141100221235786,Fm-3m,0.0,0.0,0.0,0.0,0.0
562429,Ti2NiB,Ti,Ni,B,-7.111,-0.201,5.8220327252411135,Fm-3m,1.096,0.349,0.349,0.362,0.002
563257,Ti2NiBi,Ti,Ni,Bi,-6.264,-0.014,6.52037786210099,Fm-3m,0.0,0.0,0.0,0.0,0.0
562574,Ti2GaNi,Ti,Ni,Ga,-6.377,-0.379,6.153238209173279,Fm-3m,1.1,0.323,0.323,0.425,0.025
561505,Ti2NiGe,Ti,Ni,Ge,-6.831,-0.435,6.164205819510066,Fm-3m,0.14,0.046,0.046,0.043,0.0
734357,Ti2InNi,Ti,Ni,In,-6.064,-0.144,6.394265697019268,F-43m,3.0,1.204,1.627,0.142,-0.017
562961,MgTi2Ni,Ti,Ni,Mg,-5.583,0.043,6.284652319607964,Fm-3m,1.972,0.657,0.657,0.504,0.016
563432,Ti2NiPb,Ti,Ni,Pb,-6.161,0.005,6.481636532244468,Fm-3m,-0.0,0.0,0.0,0.0,0.0
563402,Ti2NiSb,Ti,Ni,Sb,-6.536,-0.266,6.3923084683396,Fm-3m,0.0,0.0,0.0,0.0,0.0
563308,Ti2SiNi,Ti,Ni,Si,-7.069,-0.473,6.089042408460081,Fm-3m,-0.004,-0.002,-0.002,-0.002,0.0
561526,Ti2ZnNi,Ti,Ni,Zn,-5.796,-0.239,6.12919801058901,Fm-3m,1.876,0.623,0.623,0.501,0.042
736497,Ti2AlPd,Ti,Pd,Al,-6.554,-0.475,6.316225915258877,F-43m,3.0,1.121,1.743,0.088,-0.018
562391,Ti2AsPd,Ti,Pd,As,-6.879,-0.573,6.304573818089119,Fm-3m,0.02,0.009,0.009,0.0,-0.001
562328,Ti2BPd,Ti,Pd,B,-6.913,-0.1,6.030951174040765,Fm-3m,1.2,0.517,0.517,0.128,-0.015
561499,Ti2BiPd,Ti,Pd,Bi,-6.367,-0.214,6.6261588099925435,Fm-3m,0.032,0.014,0.014,0.0,0.0
736500,Ti2GaPd,Ti,Pd,Ga,-6.363,-0.462,6.319299179887056,F-43m,2.996,1.199,1.702,0.091,-0.022
563115,Ti2GePd,Ti,Pd,Ge,-6.809,-0.509,6.331828512899796,Fm-3m,0.636,0.268,0.268,0.062,-0.004
736503,Ti2InPd,Ti,Pd,In,-6.16,-0.337,6.498982089122483,F-43m,3.0,1.196,1.655,0.083,-0.023
561031,MgTi2Pd,Ti,Pd,Mg,-5.624,-0.095,6.456914244802885,Fm-3m,1.96,0.772,0.772,0.203,0.01
561388,Ti2PdPb,Ti,Pd,Pb,-6.244,-0.174,6.600795741215605,Fm-3m,2.032,0.88,0.88,0.091,-0.026
561149,Ti2SbPd,Ti,Pd,Sb,-6.601,-0.429,6.520879603310473,Fm-3m,0.004,0.002,0.002,0.0,0.0
562386,Ti2SiPd,Ti,Pd,Si,-7.014,-0.515,6.253440239346407,Fm-3m,1.624,0.691,0.691,0.129,-0.02
561877,Ti2SnPd,Ti,Pd,Sn,-6.525,-0.403,6.533148220031615,Fm-3m,1.888,0.812,0.812,0.106,-0.021
744682,Ti2AlPt,Ti,Pt,Al,-6.989,-0.689,6.302426209213365,F-43m,3.0,1.002,1.832,0.078,-0.01
562702,Ti2AsPt,Ti,Pt,As,-7.17,-0.644,6.334487939695293,Fm-3m,0.876,0.377,0.377,0.038,-0.001
563005,Ti2BPt,Ti,Pt,B,-7.225,-0.193,6.0643445338598,Fm-3m,0.012,0.005,0.005,0.001,0.0
563511,Ti2BiPt,Ti,Pt,Bi,-6.671,-0.299,6.640461573371392,Fm-3m,2.16,0.934,0.934,0.072,-0.012
744685,Ti2GaPt,Ti,Pt,Ga,-6.743,-0.622,6.272611430396499,F-43m,3.0,1.07,1.809,0.089,-0.001
561778,Ti2GePt,Ti,Pt,Ge,-7.11,-0.591,6.357663263497622,Fm-3m,1.968,0.839,0.839,0.139,0.002
744688,Ti2InPt,Ti,Pt,In,-6.516,-0.473,6.499613389234193,F-43m,3.0,1.073,1.752,0.076,-0.008
563034,MgTi2Pt,Ti,Pt,Mg,-6.085,-0.336,6.412216250251451,Fm-3m,0.028,0.012,0.012,0.002,0.0
561331,Ti2PtPb,Ti,Pt,Pb,-6.552,-0.264,6.603365287142394,Fm-3m,2.28,0.965,0.965,0.143,-0.002
561983,Ti2SbPt,Ti,Pt,Sb,-6.881,-0.489,6.534647336243027,Fm-3m,1.832,0.788,0.788,0.076,-0.007
562896,Ti2SiPt,Ti,Pt,Si,-7.311,-0.592,6.2861373190298835,Fm-3m,0.092,0.043,0.043,0.007,0.0
562575,Ti2SnPt,Ti,Pt,Sn,-6.828,-0.487,6.542381834983354,Fm-3m,2.32,0.972,0.972,0.163,0.007
736511,Ti2AlRh,Ti,Rh,Al,-7.212,-0.609,6.249482623839353,F-43m,2.0,0.696,1.371,-0.064,-0.015
563220,Ti2AsRh,Ti,Rh,As,-7.411,-0.582,6.261884586731496,Fm-3m,0.184,0.074,0.074,0.011,-0.001
561728,Ti2BRh,Ti,Rh,B,-7.539,-0.203,5.970073201518756,Fm-3m,0.0,0.0,0.0,0.0,0.0
562955,Ti2BiRh,Ti,Rh,Bi,-6.854,-0.178,6.58509031066308,Fm-3m,0.164,0.079,0.079,0.016,0.001
736515,Ti2GeRh,Ti,Rh,Ge,-7.382,-0.56,6.212945548975539,F-43m,2.936,0.991,1.787,0.141,-0.009
736517,Ti2InRh,Ti,Rh,In,-6.756,-0.409,6.434836080054495,F-43m,2.0,0.75,1.323,-0.087,-0.021
563332,MgTi2Rh,Ti,Rh,Mg,-6.28,-0.228,6.3641221645208645,Fm-3m,0.0,0.0,0.0,0.0,0.0
736520,Ti2RhPb,Ti,Rh,Pb,-6.819,-0.227,6.5403875862532175,F-43m,3.0,1.026,1.735,0.125,-0.017
561447,Ti2SbRh,Ti,Rh,Sb,-7.105,-0.409,6.477317387792834,Fm-3m,1.12,0.451,0.451,0.098,-0.002
736512,Ti2SiRh,Ti,Rh,Si,-7.661,-0.638,6.161116343470762,F-43m,2.964,0.977,1.809,0.146,-0.022
736518,Ti2SnRh,Ti,Rh,Sn,-7.165,-0.52,6.459216038442624,F-43m,3.0,1.004,1.767,0.128,-0.008
562199,Ti2ZnRh,Ti,Rh,Zn,-6.419,-0.436,6.244289183441204,Fm-3m,0.0,0.0,0.0,0.0,0.0
736469,Ti2AlRu,Ti,Ru,Al,-7.588,-0.502,6.230718174969228,F-43m,1.004,0.326,0.829,-0.138,-0.011
561552,Ti2AsRu,Ti,Ru,As,-7.746,-0.434,6.236619909482476,Fm-3m,0.0,0.0,0.0,0.0,0.0
562287,Ti2BRu,Ti,Ru,B,-7.994,-0.175,5.93015301795685,Fm-3m,0.0,0.0,0.0,0.0,0.0
736479,Ti2BiRu,Ti,Ru,Bi,-7.247,-0.088,6.524139040751237,F-43m,2.82,0.747,1.748,0.17,0.001
561522,Ti2GaRu,Ti,Ru,Ga,-7.393,-0.486,6.237990806128192,Fm-3m,0.0,0.0,0.0,0.0,0.0
736473,Ti2GeRu,Ti,Ru,Ge,-7.821,-0.516,6.203258779396723,F-43m,2.0,0.673,1.417,-0.079,-0.015
736475,Ti2InRu,Ti,Ru,In,-7.091,-0.261,6.419471946682088,F-43m,1.0,0.38,0.812,-0.184,-0.017
561308,MgTi2Ru,Ti,Ru,Mg,-6.748,-0.213,6.336481045339276,Fm-3m,0.0,0.0,0.0,0.0,0.0
736478,Ti2RuPb,Ti,Ru,Pb,-7.195,-0.119,6.504911475274396,F-43m,2.0,0.669,1.403,-0.137,-0.017
736477,Ti2SbRu,Ti,Ru,Sb,-7.556,-0.377,6.419860182059308,F-43m,2.732,0.712,1.73,0.164,-0.005
736470,Ti2SiRu,Ti,Ru,Si,-8.117,-0.611,6.132177896186548,F-43m,2.0,0.658,1.413,-0.064,-0.021
736476,Ti2SnRu,Ti,Ru,Sn,-7.56,-0.432,6.426711278383485,F-43m,2.0,0.659,1.412,-0.122,-0.014
562023,Ti2ZnRu,Ti,Ru,Zn,-6.872,-0.406,6.209904391473799,Fm-3m,0.0,0.0,0.0,0.0,0.0
736707,AlV2Ag,V,Ag,Al,-5.843,0.269,6.195904336313973,F-43m,0.056,0.007,0.048,0.002,0.0
392317,V2AgAs,V,Ag,As,-6.116,0.223,6.168413757071581,Fm-3m,0.692,0.327,0.327,0.003,-0.003
391656,V2AgB,V,Ag,B,-6.215,0.63,5.88091120745184,Fm-3m,0.0,0.0,0.0,0.0,0.0
392098,V2AgBi,V,Ag,Bi,-5.662,0.524,6.65169082827449,Fm-3m,5.908,2.683,2.683,0.076,-0.074
391466,V2GaAg,V,Ag,Ga,-5.646,0.288,6.2056140616896345,Fm-3m,0.068,0.034,0.034,0.0,-0.001
393605,V2AgGe,V,Ag,Ge,-6.101,0.23,6.181282432337328,Fm-3m,0.0,0.0,0.0,0.0,0.0
736713,V2InAg,V,Ag,In,-5.391,0.465,6.489371189382711,F-43m,5.54,2.568,2.585,0.084,-0.052
391798,MgV2Ag,V,Ag,Mg,-4.893,0.669,6.325303458389675,Fm-3m,4.628,2.097,2.097,0.053,0.006
392860,V2AgPb,V,Ag,Pb,-5.496,0.606,6.466239151718712,Fm-3m,0.02,0.008,0.008,0.0,-0.001
393212,V2AgSb,V,Ag,Sb,-5.884,0.321,6.413642772267424,Fm-3m,2.412,1.13,1.13,0.016,-0.025
392915,V2SiAg,V,Ag,Si,-6.359,0.173,6.088466966183965,Fm-3m,0.0,0.0,0.0,0.0,0.0
392586,V2AgSn,V,Ag,Sn,-5.817,0.338,6.3825042988599066,Fm-3m,-0.004,-0.001,-0.001,0.0,0.0
1122868,V2ZnAg,V,Ag,Zn,-5.11,0.383,6.279516914169825,F-43m,4.996,2.395,2.31,0.111,-0.016
743876,AlV2Au,V,Au,Al,-6.217,0.007,6.220121929075946,F-43m,-0.008,1.428,-1.407,0.056,-0.014
391473,V2AsAu,V,Au,As,-6.421,0.029,6.1915945758095265,Fm-3m,-0.0,0.0,0.0,0.0,0.0
393515,V2BAu,V,Au,B,-6.464,0.493,5.935153532644953,Fm-3m,0.0,0.0,0.0,0.0,0.0
393439,V2BiAu,V,Au,Bi,-5.906,0.391,6.506549611200036,Fm-3m,1.592,0.745,0.747,-0.006,-0.022
392032,V2GaAu,V,Au,Ga,-5.942,0.104,6.22452994520591,Fm-3m,0.076,0.046,0.046,0.001,0.0
391974,V2GeAu,V,Au,Ge,-6.384,0.059,6.209489457329074,Fm-3m,0.064,0.02,0.02,-0.002,-0.002
391614,V2InAu,V,Au,In,-5.677,0.29,6.392177943806785,Fm-3m,3.756,1.773,1.773,0.016,-0.038
1142180,MgV2Au,V,Au,Mg,-5.465,0.208,6.397003805867962,F-43m,5.004,2.5,2.13,0.122,-0.017
393431,V2PbAu,V,Au,Pb,-5.793,0.421,6.4638147105662895,Fm-3m,2.968,1.419,1.419,-0.011,-0.034
392610,V2SbAu,V,Au,Sb,-6.158,0.159,6.394135252381499,Fm-3m,0.004,0.002,0.002,0.0,0.0
393163,V2SiAu,V,Au,Si,-6.631,0.012,6.138695164231594,Fm-3m,0.0,0.0,0.0,0.0,0.0
392705,V2SnAu,V,Au,Sn,-6.105,0.161,6.394656999002805,Fm-3m,-0.0,0.0,0.0,0.0,0.0
1122873,V2ZnAu,V,Au,Zn,-5.418,0.186,6.275998370271914,F-43m,5.0,2.238,2.453,0.134,-0.014
736721,AlV2Cd,V,Cd,Al,-5.327,0.305,6.281004342595056,F-43m,0.276,1.457,-1.172,0.02,-0.004
392839,V2CdAs,V,Cd,As,-5.53,0.329,6.287891414277347,Fm-3m,1.768,0.83,0.83,0.031,-0.018
393435,V2CdB,V,Cd,B,-5.619,0.746,5.955974038892078,Fm-3m,-0.0,0.0,0.0,0.0,0.0
392846,V2CdBi,V,Cd,Bi,-5.172,0.533,6.779291091115145,Fm-3m,6.148,2.759,2.759,0.041,-0.055
391794,V2CdGa,V,Cd,Ga,-5.127,0.327,6.260115884852999,Fm-3m,-0.0,0.0,0.0,0.0,0.0
392736,V2CdGe,V,Cd,Ge,-5.522,0.329,6.304976331900982,Fm-3m,2.5,1.162,1.162,0.031,-0.015
391912,V2CdIn,V,Cd,In,-4.914,0.462,6.583491032203111,Fm-3m,4.756,2.238,2.238,0.0,-0.062
393823,MgV2Cd,V,Cd,Mg,-4.436,0.646,6.428647618144638,Fm-3m,3.864,1.758,1.758,-0.038,-0.004
392594,V2CdPb,V,Cd,Pb,-5.059,0.563,6.7235969028223055,Fm-3m,5.768,2.638,2.638,0.03,-0.062
393052,V2CdSb,V,Cd,Sb,-5.351,0.374,6.577332708029638,Fm-3m,4.704,2.139,2.139,0.041,-0.028
392123,V2CdSi,V,Cd,Si,-5.769,0.283,6.1857459572514655,Fm-3m,1.428,0.672,0.672,0.02,-0.014
393187,V2CdSn,V,Cd,Sn,-5.325,0.349,6.570668739223685,Fm-3m,4.428,2.063,2.063,0.01,-0.051
748582,V2ZnCd,V,Cd,Zn,-4.555,0.457,6.350530056813266,F-43m,3.932,1.946,1.771,0.008,-0.016
716857,AlV2Co,V,Co,Al,-7.355,-0.176,5.887688586239266,F-43m,1.992,-0.176,1.617,0.528,-0.003
392688,V2CoAs,V,Co,As,-7.484,-0.078,5.893989857905733,Fm-3m,0.016,0.004,0.004,-0.001,0.0
734543,V2CoB,V,Co,B,-7.845,0.067,5.525545082480248,F-43m,1.94,0.099,1.417,0.503,-0.029
716867,V2CoBi,V,Co,Bi,-6.837,0.416,6.235934235094889,F-43m,0.04,0.824,-1.038,0.318,-0.013
716860,V2GaCo,V,Co,Ga,-7.127,-0.126,5.891225105788133,F-43m,1.968,-0.162,1.572,0.558,0.005
716861,V2CoGe,V,Co,Ge,-7.528,-0.129,5.8697871369942245,F-43m,0.98,-0.247,0.849,0.368,0.004
716863,V2InCo,V,Co,In,-6.747,0.176,6.136854730618029,F-43m,2.012,-0.38,1.705,0.642,0.006
392901,MgV2Co,V,Co,Mg,-6.232,0.397,6.0300712570201,Fm-3m,3.036,0.88,0.88,1.152,0.013
734553,V2CoPb,V,Co,Pb,-6.766,0.403,6.226731613989562,F-43m,1.0,-0.621,1.225,0.363,0.006
716865,V2CoSb,V,Co,Sb,-7.209,0.064,6.099525180276834,F-43m,0.132,0.118,-0.141,0.105,-0.002
734545,V2CoSi,V,Co,Si,-7.894,-0.295,5.766593529687476,F-43m,1.0,-0.169,0.782,0.377,-0.005
716864,V2CoSn,V,Co,Sn,-7.174,0.048,6.119386499226039,F-43m,1.012,-0.485,1.083,0.388,0.013
1122867,V2ZnCo,V,Co,Zn,-6.547,0.012,5.880602773444485,F-43m,2.888,0.265,1.974,0.642,0.018
716953,AlV2Cu,V,Cu,Al,-6.221,0.115,6.0026654823586165,F-43m,0.64,1.3,-0.73,0.064,-0.015
392017,V2CuAs,V,Cu,As,-6.542,0.021,5.963181941290622,Fm-3m,0.984,0.452,0.452,0.017,-0.001
392676,V2CuBi,V,Cu,Bi,-5.89,0.519,6.387867640447303,Fm-3m,2.344,1.091,1.091,0.012,-0.016
392972,V2GaCu,V,Cu,Ga,-6.064,0.094,5.978291925003365,Fm-3m,0.256,0.123,0.123,-0.002,-0.003
391930,V2CuGe,V,Cu,Ge,-6.526,0.03,5.974260104572856,Fm-3m,0.024,0.008,0.008,-0.001,-0.001
716959,V2InCu,V,Cu,In,-5.708,0.371,6.229481512381344,F-43m,0.144,0.073,0.051,0.007,-0.001
392775,MgV2Cu,V,Cu,Mg,-5.224,0.561,6.107685377193847,Fm-3m,0.02,0.008,0.008,0.0,0.0
734676,V2CuPb,V,Cu,Pb,-5.789,0.536,6.378836342706065,F-43m,0.232,1.634,-1.48,0.071,-0.005
391691,V2CuSb,V,Cu,Sb,-6.201,0.228,6.221086716450238,Fm-3m,1.336,0.629,0.629,0.01,-0.01
393140,V2CuSi,V,Cu,Si,-6.832,-0.076,5.878905807781705,Fm-3m,0.0,0.0,0.0,0.0,0.0
716960,V2CuSn,V,Cu,Sn,-6.148,0.23,6.246750310615874,F-43m,0.3,1.283,-1.05,0.07,-0.012
393173,V2ZnCu,V,Cu,Zn,-5.445,0.271,5.941958866766335,Fm-3m,0.004,0.003,0.003,0.0,0.0
716905,AlV2Fe,V,Fe,Al,-7.675,-0.191,5.902880906566779,F-43m,2.916,-0.162,1.929,1.109,-0.015
393250,V2FeAs,V,Fe,As,-7.852,-0.141,5.914795767215474,Fm-3m,1.556,-0.356,-0.356,2.172,0.057
734610,V2FeB,V,Fe,B,-8.2,0.017,5.525545082480248,F-43m,2.352,0.069,1.601,0.778,-0.037
734621,V2FeBi,V,Fe,Bi,-7.131,0.426,6.223703917733508,F-43m,0.988,-0.701,0.988,0.706,0.0
716908,V2GaFe,V,Fe,Ga,-7.451,-0.145,5.898592022544307,F-43m,2.856,-0.187,1.864,1.166,-0.01
716909,V2FeGe,V,Fe,Ge,-7.869,-0.165,5.873809023709861,F-43m,1.972,-0.424,1.474,0.928,-0.009
716911,V2InFe,V,Fe,In,-7.055,0.173,6.154787291957194,F-43m,2.892,-0.552,1.897,1.52,-0.011
391956,MgV2Fe,V,Fe,Mg,-6.522,0.411,5.987827172263985,Fm-3m,1.612,0.371,0.371,0.826,-0.002
734620,V2FePb,V,Fe,Pb,-7.069,0.404,6.230718174969228,F-43m,1.98,-0.819,1.604,1.183,-0.009
716913,V2FeSb,V,Fe,Sb,-7.524,0.053,6.086452061121769,F-43m,0.996,-0.522,0.851,0.666,-0.001
734612,V2FeSi,V,Fe,Si,-8.244,-0.341,5.772041424783626,F-43m,1.992,-0.317,1.436,0.866,-0.018
716912,V2FeSn,V,Fe,Sn,-7.491,0.035,6.128346082298019,F-43m,1.988,-0.686,1.59,1.072,-0.003
1122858,V2ZnFe,V,Fe,Zn,-6.801,0.063,5.871953452894962,F-43m,2.0,-0.084,1.472,0.611,0.004
744293,AlV2Ir,V,Ir,Al,-8.093,-0.472,6.055048946511104,F-43m,1.912,-0.299,1.916,0.185,0.001
744298,V2AsIr,V,Ir,As,-7.949,-0.102,6.043681220113529,F-43m,0.02,0.163,-0.145,-0.013,0.002
744292,V2BIr,V,Ir,B,-8.394,-0.04,5.727841625616024,F-43m,0.484,-0.079,0.497,0.044,-0.007
744303,V2BiIr,V,Ir,Bi,-7.377,0.317,6.4270986396814145,F-43m,0.0,1.535,-1.498,-0.051,0.004
744296,V2GaIr,V,Ir,Ga,-7.785,-0.343,6.032710238213446,F-43m,1.824,-0.264,1.832,0.184,0.017
744297,V2GeIr,V,Ir,Ge,-8.103,-0.262,6.04382723096641,F-43m,0.544,-0.189,0.666,0.071,0.005
744299,V2InIr,V,Ir,In,-7.414,-0.05,6.283031519453661,F-43m,1.84,-0.466,2.014,0.174,0.023
1147427,MgV2Ir,V,Ir,Mg,-7.202,-0.133,6.151265520519266,F-43m,2.796,2.342,0.098,0.171,0.004
744302,V2IrPb,V,Ir,Pb,-7.346,0.264,6.348413433785763,F-43m,0.876,-0.842,1.559,0.098,0.012
744301,V2SbIr,V,Ir,Sb,-7.73,-0.016,6.258210010593907,F-43m,0.004,0.957,-0.906,-0.034,-0.007
744294,V2SiIr,V,Ir,Si,-8.502,-0.461,5.940447917490299,F-43m,0.304,-0.102,0.337,0.035,-0.001
744300,V2SnIr,V,Ir,Sn,-7.792,-0.129,6.2755921304901925,F-43m,0.924,-0.741,1.479,0.118,0.023
1122871,V2ZnIr,V,Ir,Zn,-7.231,-0.23,6.0430971061397925,F-43m,2.58,0.156,2.132,0.182,0.028
716893,LiAlV2,V,Li,Al,-5.651,0.23,6.086020122147845,F-43m,2.164,1.676,0.404,0.011,-0.022
716898,LiV2As,V,Li,As,-6.138,-0.031,5.93015301795685,F-43m,-0.004,0.014,-0.014,0.0,0.0
391898,LiV2B,V,Li,B,-6.367,0.247,5.503270781793781,Fm-3m,0.0,0.0,0.0,0.0,0.0
734607,LiV2Bi,V,Li,Bi,-5.623,0.332,6.350794535503233,F-43m,0.008,0.01,-0.007,0.0,0.0
734600,LiV2Ga,V,Li,Ga,-5.507,0.196,6.051846987477772,F-43m,1.004,1.714,-0.75,0.016,-0.021
734601,LiV2Ge,V,Li,Ge,-6.023,0.078,5.997332147269451,F-43m,0.564,1.046,-0.491,0.004,-0.011
734603,LiV2In,V,Li,In,-5.266,0.359,6.368070132136718,F-43m,4.016,2.082,1.715,-0.006,-0.058
734527,LiMgV2,V,Li,Mg,-4.768,0.562,6.337012328469638,F-43m,4.412,2.006,2.065,-0.009,-0.013
734606,LiV2Pb,V,Li,Pb,-5.452,0.418,6.348678088853658,F-43m,0.012,-0.001,0.009,0.0,0.0
716901,LiV2Sb,V,Li,Sb,-5.904,0.07,6.210319270175693,F-43m,0.016,0.002,0.005,0.0,0.0
734598,LiV2Si,V,Li,Si,-6.282,0.019,5.8875347281215955,F-43m,1.04,0.944,0.128,-0.002,-0.018
734604,LiV2Sn,V,Li,Sn,-5.761,0.162,6.25002879986729,F-43m,0.572,0.748,-0.255,0.0,-0.015
749038,LiV2Zn,V,Li,Zn,-4.883,0.378,6.0887547009181455,F-43m,4.268,2.223,1.878,-0.002,-0.005