id,formula,X,Y,Z,energy,formation,lat,spacegroup,tot_mag,X1_mag,X2_mag,Y_mag,Z_mag
737540,LiBiMo2,Mo,Li,Bi,-6.583,0.325,6.470318316402203,F-43m,0.004,0.008,-0.006,0.0,0.0
737533,LiGaMo2,Mo,Li,Ga,-6.56,0.096,6.181561591530769,F-43m,-0.0,0.0,0.0,0.0,0.0
737534,LiGeMo2,Mo,Li,Ge,-7.037,0.018,6.154364892169172,F-43m,0.0,0.001,0.001,0.0,0.0
737536,LiInMo2,Mo,Li,In,-6.306,0.272,6.394265697019268,F-43m,-0.0,0.0,0.0,0.0,0.0
737638,LiMgMo2,Mo,Li,Mg,-5.869,0.415,6.312078951101366,F-43m,0.0,-0.002,0.003,0.0,0.0
737539,LiMo2Pb,Mo,Li,Pb,-6.441,0.384,6.464070000549001,F-43m,0.004,-0.005,0.008,0.0,0.0
737538,LiSbMo2,Mo,Li,Sb,-6.899,0.029,6.3445734530895574,F-43m,0.004,0.001,-0.001,0.0,0.0
737531,LiSiMo2,Mo,Li,Si,-7.321,-0.067,6.0731779437513245,F-43m,-0.0,0.0,0.0,0.0,0.0
737537,LiSnMo2,Mo,Li,Sn,-6.801,0.075,6.371224985331595,F-43m,0.0,-0.001,0.002,0.0,0.0
749036,LiZnMo2,Mo,Li,Zn,-5.891,0.323,6.181701161672868,F-43m,-0.0,-0.002,0.004,0.0,0.0
737641,MgAlMo2,Mo,Mg,Al,-6.714,0.032,6.340463499436098,F-43m,0.0,0.0,0.0,0.0,0.0
737646,MgMo2As,Mo,Mg,As,-6.762,0.211,6.323436682380224,F-43m,0.012,0.009,-0.002,0.0,0.0
737640,MgBMo2,Mo,Mg,B,-6.891,0.588,6.037834991493095,F-43m,0.004,0.0,-0.001,0.0,0.0
737651,MgBiMo2,Mo,Mg,Bi,-6.282,0.537,6.655305092639384,F-43m,0.5,0.485,-0.1,0.009,0.016
737644,MgGaMo2,Mo,Mg,Ga,-6.473,0.095,6.327035907173403,F-43m,0.004,0.0,0.001,0.0,0.0
737645,MgGeMo2,Mo,Mg,Ge,-6.856,0.109,6.299874021164411,F-43m,-0.0,0.0,0.0,0.0,0.0
737647,MgInMo2,Mo,Mg,In,-6.224,0.266,6.520879603310473,F-43m,0.004,-0.002,0.004,0.0,0.0
737650,MgMo2Pb,Mo,Mg,Pb,-6.245,0.491,6.59577323490786,F-43m,-0.004,0.004,-0.004,0.0,0.0
737649,MgSbMo2,Mo,Mg,Sb,-6.573,0.266,6.5006232144065645,F-43m,0.0,0.0,0.0,0.0,0.0
737642,MgSiMo2,Mo,Mg,Si,-7.156,0.01,6.225906170669227,F-43m,0.0,0.0,0.0,0.0,0.0
737648,MgSnMo2,Mo,Mg,Sn,-6.631,0.157,6.50591965654482,F-43m,0.004,0.002,-0.001,0.0,0.0
737643,MgZnMo2,Mo,Mg,Zn,-5.882,0.244,6.3262364333328005,F-43m,0.0,0.0,0.001,0.0,0.0
737655,MnAlMo2,Mo,Mn,Al,-8.647,-0.03,6.10224767120462,F-43m,1.976,-0.352,0.437,1.833,-0.017
448133,MnMo2As,Mo,Mn,As,-8.812,0.032,6.129339975614553,Fm-3m,1.8,-0.317,-0.317,2.34,0.043
449642,MnBMo2,Mo,Mn,B,-9.025,0.326,5.823762992005442,Fm-3m,1.06,-0.187,-0.187,1.376,0.032
449363,MnBiMo2,Mo,Mn,Bi,-8.14,0.55,6.468534314885321,Fm-3m,1.528,-0.572,-0.572,2.689,0.021
737658,MnGaMo2,Mo,Mn,Ga,-8.362,0.077,6.116679247062685,F-43m,1.976,-0.378,0.413,1.911,-0.024
737659,MnGeMo2,Mo,Mn,Ge,-8.733,0.104,6.140958799436241,F-43m,1.188,-0.253,0.241,1.207,-0.022
737661,MnInMo2,Mo,Mn,In,-8.012,0.349,6.313015838642059,F-43m,2.464,-0.403,0.273,2.637,-0.031
448515,MgMnMo2,Mo,Mn,Mg,-7.55,0.517,6.156757724794472,Fm-3m,0.0,-0.001,-0.001,0.002,0.0
448101,MnMo2Pb,Mo,Mn,Pb,-7.98,0.626,6.452433831021461,Fm-3m,1.76,-0.465,-0.465,2.675,0.018
448864,MnSbMo2,Mo,Mn,Sb,-8.517,0.193,6.350001033335231,Fm-3m,1.644,-0.468,-0.468,2.57,0.027
447993,MnSiMo2,Mo,Mn,Si,-9.124,-0.087,6.051701363362323,Fm-3m,1.572,-0.252,-0.252,2.017,0.03
737662,MnSnMo2,Mo,Mn,Sn,-8.417,0.242,6.303902847498274,F-43m,1.212,-0.288,0.2,1.321,-0.023
1122671,MnZnMo2,Mo,Mn,Zn,-7.795,0.203,6.175554103489313,F-43m,2.968,-0.444,0.523,2.822,-0.012
737489,AlNiMo2,Mo,Ni,Al,-7.789,-0.037,6.120383304342095,F-43m,0.316,0.156,-0.036,0.181,0.0
447735,NiMo2As,Mo,Ni,As,-7.927,0.052,6.084435821116786,Fm-3m,0.0,0.0,0.0,0.0,0.0
449043,NiBMo2,Mo,Ni,B,-8.235,0.25,5.789437772722003,Fm-3m,0.0,0.0,0.0,0.0,0.0
737499,NiBiMo2,Mo,Ni,Bi,-7.219,0.607,6.450383567919294,F-43m,0.636,0.476,-0.085,0.187,0.002
737492,GaNiMo2,Mo,Ni,Ga,-7.486,0.088,6.135721607185506,F-43m,0.056,0.03,-0.009,0.032,0.0
448116,NiGeMo2,Mo,Ni,Ge,-7.895,0.077,6.094647279663257,Fm-3m,0.0,0.0,0.0,0.0,0.0
737495,InNiMo2,Mo,Ni,In,-7.179,0.317,6.3021576551731044,F-43m,0.024,0.018,-0.008,0.013,0.0
449570,MgNiMo2,Mo,Ni,Mg,-6.609,0.592,6.179187934199094,Fm-3m,0.0,0.0,0.0,0.0,0.0
737498,NiMo2Pb,Mo,Ni,Pb,-7.162,0.58,6.41869533501873,F-43m,0.936,0.575,-0.09,0.399,0.003
450008,NiSbMo2,Mo,Ni,Sb,-7.574,0.271,6.302291935054149,Fm-3m,0.0,0.0,0.0,0.0,0.0
449914,SiNiMo2,Mo,Ni,Si,-8.252,-0.08,6.0202280241660135,Fm-3m,0.0,0.0,0.0,0.0,0.0
737496,NiSnMo2,Mo,Ni,Sn,-7.59,0.205,6.329965584093958,F-43m,0.628,0.348,-0.057,0.303,0.001
1122654,ZnNiMo2,Mo,Ni,Zn,-6.908,0.224,6.123798459297479,F-43m,0.004,-0.007,0.007,0.005,0.0
737558,AlMo2Pd,Mo,Pd,Al,-7.717,-0.062,6.265011383141239,F-43m,0.048,0.033,-0.009,0.01,0.0
449006,Mo2AsPd,Mo,Pd,As,-7.794,0.088,6.247706892101213,Fm-3m,0.0,0.0,0.0,0.0,0.0
448941,BMo2Pd,Mo,Pd,B,-7.869,0.518,6.009614215876695,Fm-3m,0.0,0.0,0.0,0.0,0.0
448110,BiMo2Pd,Mo,Pd,Bi,-7.214,0.514,6.53876636321757,Fm-3m,0.0,0.0,0.0,0.0,0.0
737561,GaMo2Pd,Mo,Pd,Ga,-7.41,0.066,6.287216878086641,F-43m,0.052,0.041,-0.014,0.012,0.0
449719,GeMo2Pd,Mo,Pd,Ge,-7.759,0.116,6.265826556058271,Fm-3m,0.0,0.0,0.0,0.0,0.0
737564,InMo2Pd,Mo,Pd,In,-7.16,0.239,6.458576815886945,F-43m,0.004,0.004,-0.002,0.001,0.0
447633,MgMo2Pd,Mo,Pd,Mg,-6.511,0.593,6.353173853066641,Fm-3m,0.0,0.0,0.0,0.0,0.0
737567,Mo2PdPb,Mo,Pd,Pb,-7.137,0.508,6.556183582251324,F-43m,1.256,1.06,-0.168,0.219,0.008
447755,SbMo2Pd,Mo,Pd,Sb,-7.537,0.211,6.437539793011318,Fm-3m,0.0,0.0,0.0,0.0,0.0
449001,SiMo2Pd,Mo,Pd,Si,-8.063,0.011,6.188114587117907,Fm-3m,0.0,0.0,0.0,0.0,0.0
737565,SnMo2Pd,Mo,Pd,Sn,-7.531,0.165,6.465728894139026,F-43m,0.54,0.427,-0.063,0.117,0.003
748732,ZnMo2Pd,Mo,Pd,Zn,-6.865,0.17,6.266505704834028,F-43m,-0.008,0.004,-0.004,0.001,0.0
745477,AlMo2Pt,Mo,Pt,Al,-8.051,-0.177,6.269763571656844,F-43m,0.044,0.03,-0.006,0.009,0.0
449309,Mo2AsPt,Mo,Pt,As,-8.107,-0.006,6.272340317158187,Fm-3m,0.0,0.0,0.0,0.0,0.0
449613,BMo2Pt,Mo,Pt,B,-8.128,0.48,6.05955505815456,Fm-3m,0.0,0.0,0.0,0.0,0.0
450114,BiMo2Pt,Mo,Pt,Bi,-7.53,0.417,6.5556872306959315,Fm-3m,0.0,0.0,0.0,0.0,0.0
745480,GaMo2Pt,Mo,Pt,Ga,-7.694,0.002,6.289914155012084,F-43m,0.028,0.02,-0.003,0.006,0.0
448386,GeMo2Pt,Mo,Pt,Ge,-8.052,0.041,6.297723205157315,Fm-3m,0.0,0.0,0.0,0.0,0.0
745483,InMo2Pt,Mo,Pt,In,-7.423,0.195,6.4645805200291235,F-43m,0.344,0.299,-0.066,0.071,-0.001
449639,MgMo2Pt,Mo,Pt,Mg,-6.91,0.414,6.3408614697798145,Fm-3m,0.0,0.0,0.0,0.0,0.0
447941,Mo2PtPb,Mo,Pt,Pb,-7.368,0.496,6.524389631841967,Fm-3m,0.0,0.0,0.0,0.0,0.0
448598,SbMo2Pt,Mo,Pt,Sb,-7.837,0.13,6.4516651350610035,Fm-3m,0.0,0.0,0.0,0.0,0.0
449504,SiMo2Pt,Mo,Pt,Si,-8.344,-0.049,6.230992922221324,Fm-3m,0.0,0.0,0.0,0.0,0.0
745484,SnMo2Pt,Mo,Pt,Sn,-7.746,0.17,6.486837268317061,F-43m,1.54,1.204,-0.121,0.291,0.008
1122655,ZnMo2Pt,Mo,Pt,Zn,-7.202,0.053,6.266098233234931,F-43m,0.004,0.001,0.0,0.0,0.0
737586,AlMo2Rh,Mo,Rh,Al,-8.387,-0.209,6.217639671973345,F-43m,-0.02,-0.002,0.0,0.0,0.0
449825,Mo2AsRh,Mo,Rh,As,-8.342,0.062,6.221500105162762,Fm-3m,0.0,0.0,0.0,0.0,0.0
737585,BMo2Rh,Mo,Rh,B,-8.465,0.445,5.987529655261992,F-43m,0.016,0.002,0.002,0.001,-0.001
737596,BiMo2Rh,Mo,Rh,Bi,-7.773,0.478,6.549849461412099,F-43m,1.976,1.462,-0.22,0.517,0.029
737589,GaMo2Rh,Mo,Rh,Ga,-8.067,-0.068,6.231267645246336,F-43m,-0.0,0.0,0.0,-0.001,0.0
737590,GeMo2Rh,Mo,Rh,Ge,-8.371,0.026,6.23305275474235,F-43m,0.492,0.345,-0.044,0.159,0.003
737592,InMo2Rh,Mo,Rh,In,-7.761,0.161,6.40572404565624,F-43m,0.004,0.001,-0.001,0.0,0.0
449941,MgMo2Rh,Mo,Rh,Mg,-7.139,0.488,6.293282501424786,Fm-3m,0.0,0.0,0.0,0.0,0.0
737595,Mo2RhPb,Mo,Rh,Pb,-7.717,0.45,6.500244566734785,F-43m,0.996,0.853,-0.208,0.275,0.001
737594,SbMo2Rh,Mo,Rh,Sb,-8.086,0.185,6.424902974608123,F-43m,1.828,1.274,-0.145,0.526,0.019
737587,SiMo2Rh,Mo,Rh,Si,-8.72,-0.122,6.152956473946623,F-43m,0.268,0.17,-0.021,0.103,0.001
737593,SnMo2Rh,Mo,Rh,Sn,-8.141,0.079,6.415068659991652,F-43m,0.604,0.448,-0.081,0.202,-0.001
737588,ZnMo2Rh,Mo,Rh,Zn,-7.476,0.082,6.219018948327285,F-43m,0.012,-0.002,0.005,0.0,0.0
737503,AlMo2Ru,Mo,Ru,Al,-8.8,-0.139,6.209627774872106,F-43m,-0.008,0.0,0.001,0.0,0.0
737508,Mo2AsRu,Mo,Ru,As,-8.702,0.185,6.222051204672269,F-43m,0.728,0.563,-0.016,0.057,0.03
737502,BMo2Ru,Mo,Ru,B,-8.94,0.454,5.9757540057890255,F-43m,0.004,0.003,-0.001,-0.001,0.0
737513,BiMo2Ru,Mo,Ru,Bi,-8.184,0.55,6.511584862870028,F-43m,0.936,0.829,-0.108,0.07,0.022
737506,GaMo2Ru,Mo,Ru,Ga,-8.482,0.0,6.222739941804823,F-43m,-0.0,0.0,-0.001,-0.001,0.0
737507,GeMo2Ru,Mo,Ru,Ge,-8.845,0.035,6.209489457329074,F-43m,0.012,0.001,0.002,0.002,0.0
737509,InMo2Ru,Mo,Ru,In,-8.139,0.266,6.400911328558464,F-43m,0.016,-0.004,0.009,0.004,0.0
447916,MgMo2Ru,Mo,Ru,Mg,-7.644,0.466,6.282491066866637,Fm-3m,0.0,0.0,0.0,0.0,0.0
737512,Mo2RuPb,Mo,Ru,Pb,-8.12,0.531,6.478207094285609,F-43m,0.012,0.009,-0.005,0.001,0.0
737511,SbMo2Ru,Mo,Ru,Sb,-8.539,0.215,6.384074990272856,F-43m,0.596,0.511,-0.04,0.067,0.011
737504,SiMo2Ru,Mo,Ru,Si,-9.217,-0.136,6.135438260924179,F-43m,0.0,0.0,0.0,0.0,0.0
737510,SnMo2Ru,Mo,Ru,Sn,-8.571,0.132,6.39778569230316,F-43m,0.008,0.0,0.001,0.001,0.0
737505,ZnMo2Ru,Mo,Ru,Zn,-7.876,0.165,6.204644456119695,F-43m,0.004,0.0,0.003,0.002,0.0
488949,Nb2AlAg,Nb,Ag,Al,-6.496,0.193,6.520503304642472,Fm-3m,0.0,0.0,0.0,0.0,0.0
487896,Nb2AgAs,Nb,Ag,As,-6.815,0.1,6.483793947547464,Fm-3m,0.0,0.0,0.0,0.0,0.0
487228,Nb2AgB,Nb,Ag,B,-6.862,0.56,6.24278420570943,Fm-3m,0.0,0.0,0.0,0.0,0.0
487677,Nb2AgBi,Nb,Ag,Bi,-6.311,0.451,6.772437450829906,Fm-3m,0.0,0.0,0.0,0.0,0.0
487037,Nb2GaAg,Nb,Ag,Ga,-6.347,0.164,6.5222589936640425,Fm-3m,0.0,0.0,0.0,0.0,0.0
489183,Nb2AgGe,Nb,Ag,Ge,-6.79,0.119,6.507179443896282,Fm-3m,0.0,0.0,0.0,0.0,0.0
488906,Nb2InAg,Nb,Ag,In,-6.071,0.362,6.68001768912571,Fm-3m,0.0,0.0,0.0,0.0,0.0
487368,MgNb2Ag,Nb,Ag,Mg,-5.596,0.542,6.619836251551549,Fm-3m,0.0,0.0,0.0,0.0,0.0
488442,Nb2AgPb,Nb,Ag,Pb,-6.201,0.477,6.74863255335618,Fm-3m,0.0,0.0,0.0,0.0,0.0
488785,Nb2AgSb,Nb,Ag,Sb,-6.575,0.207,6.680376232290433,Fm-3m,0.0,0.0,0.0,0.0,0.0
488499,Nb2SiAg,Nb,Ag,Si,-7.034,0.074,6.419083664339964,Fm-3m,0.0,0.0,0.0,0.0,0.0
488167,Nb2AgSn,Nb,Ag,Sn,-6.524,0.207,6.676310487226393,Fm-3m,0.0,0.0,0.0,0.0,0.0
488414,Nb2ZnAg,Nb,Ag,Zn,-5.73,0.339,6.500244566734785,Fm-3m,0.0,0.0,0.0,0.0,0.0
487211,Nb2AlAu,Nb,Au,Al,-6.784,0.017,6.554570164805166,Fm-3m,0.0,0.0,0.0,0.0,0.0
487044,Nb2AsAu,Nb,Au,As,-7.149,-0.123,6.504911475274396,Fm-3m,0.0,0.0,0.0,0.0,0.0
489089,Nb2BAu,Nb,Au,B,-7.125,0.408,6.294224992560376,Fm-3m,0.0,0.0,0.0,0.0,0.0
489013,Nb2BiAu,Nb,Au,Bi,-6.632,0.242,6.784740870790491,Fm-3m,0.0,0.0,0.0,0.0,0.0
487609,Nb2GaAu,Nb,Au,Ga,-6.633,-0.011,6.543378503595336,Fm-3m,0.0,0.0,0.0,0.0,0.0
487546,Nb2GeAu,Nb,Au,Ge,-7.087,-0.067,6.529272315445141,Fm-3m,0.0,0.0,0.0,0.0,0.0
487188,Nb2InAu,Nb,Au,In,-6.362,0.182,6.686346294121343,Fm-3m,0.0,0.0,0.0,0.0,0.0
1141253,MgNb2Au,Nb,Au,Mg,-6.027,0.204,6.615817586172807,F-43m,0.048,5.0,5.0,0.0,0.0
489005,Nb2PbAu,Nb,Au,Pb,-6.504,0.285,6.748515448555564,Fm-3m,0.0,0.0,0.0,0.0,0.0
488191,Nb2SbAu,Nb,Au,Sb,-6.888,0.005,6.688492908735336,Fm-3m,0.0,0.0,0.0,0.0,0.0
488735,Nb2SiAu,Nb,Au,Si,-7.316,-0.096,6.46776944148161,Fm-3m,0.0,0.0,0.0,0.0,0.0
488283,Nb2SnAu,Nb,Au,Sn,-6.814,0.029,6.689923220013096,Fm-3m,0.0,0.0,0.0,0.0,0.0
488162,Nb2ZnAu,Nb,Au,Zn,-6.035,0.145,6.524389631841967,Fm-3m,0.0,0.0,0.0,0.0,0.0
488366,Nb2AlCd,Nb,Cd,Al,-5.996,0.212,6.586565878537387,Fm-3m,0.0,0.0,0.0,0.0,0.0
488421,Nb2CdAs,Nb,Cd,As,-6.237,0.198,6.575976328099757,Fm-3m,0.0,0.0,0.0,0.0,0.0
489009,Nb2CdB,Nb,Cd,B,-6.247,0.694,6.320233928210375,Fm-3m,0.0,0.0,0.0,0.0,0.0
488428,Nb2CdBi,Nb,Cd,Bi,-5.809,0.473,6.876190427470727,Fm-3m,0.0,0.0,0.0,0.0,0.0
487363,Nb2CdGa,Nb,Cd,Ga,-5.819,0.211,6.574002412418263,Fm-3m,0.0,0.0,0.0,0.0,0.0
488315,Nb2CdGe,Nb,Cd,Ge,-6.205,0.223,6.582629560331879,Fm-3m,0.0,0.0,0.0,0.0,0.0
487483,Nb2CdIn,Nb,Cd,In,-5.594,0.358,6.75483330100352,Fm-3m,0.0,0.0,0.0,0.0,0.0
489396,MgNb2Cd,Nb,Cd,Mg,-5.159,0.499,6.701700021568373,Fm-3m,0.0,0.0,0.0,0.0,0.0
488175,Nb2CdPb,Nb,Cd,Pb,-5.69,0.508,6.838193383087912,Fm-3m,0.0,0.0,0.0,0.0,0.0
488632,Nb2CdSb,Nb,Cd,Sb,-6.041,0.26,6.767783013123911,Fm-3m,0.0,0.0,0.0,0.0,0.0
487703,Nb2CdSi,Nb,Cd,Si,-6.434,0.195,6.501254195853143,Fm-3m,0.0,0.0,0.0,0.0,0.0
488760,Nb2CdSn,Nb,Cd,Sn,-5.99,0.261,6.760205868874838,Fm-3m,0.0,0.0,0.0,0.0,0.0
488897,Nb2ZnCd,Nb,Cd,Zn,-5.245,0.343,6.5372691357651,Fm-3m,0.0,0.0,0.0,0.0,0.0
738015,Nb2AlCo,Nb,Co,Al,-7.725,0.03,6.295570919040524,F-43m,1.948,0.129,0.877,0.836,-0.003
488265,Nb2CoAs,Nb,Co,As,-8.056,-0.074,6.271120017454792,Fm-3m,-0.068,-0.009,-0.009,-0.093,-0.002
486958,Nb2CoB,Nb,Co,B,-8.324,0.165,5.994365079973101,Fm-3m,1.728,0.134,0.134,1.283,0.079
738025,Nb2CoBi,Nb,Co,Bi,-7.374,0.455,6.583983200637061,F-43m,-0.02,0.0,0.007,-0.031,0.0
487894,Nb2GaCo,Nb,Co,Ga,-7.542,0.035,6.28573238877116,Fm-3m,-0.024,-0.001,-0.001,-0.024,-0.001
488655,Nb2CoGe,Nb,Co,Ge,-8.027,-0.052,6.280193105344497,Fm-3m,1.476,0.081,0.081,1.225,0.044
738021,Nb2InCo,Nb,Co,In,-7.228,0.272,6.48150958072978,F-43m,2.072,0.12,0.887,0.963,0.002
488485,MgNb2Co,Nb,Co,Mg,-6.817,0.387,6.353702348346448,Fm-3m,0.012,-0.002,-0.002,0.002,0.0
738024,Nb2CoPb,Nb,Co,Pb,-7.279,0.466,6.578318814897192,F-43m,1.168,-0.027,0.388,0.79,0.002
489269,Nb2CoSb,Nb,Co,Sb,-7.689,0.16,6.475155653846265,Fm-3m,-0.008,0.001,0.001,-0.015,0.0
488688,Nb2CoSi,Nb,Co,Si,-8.324,-0.149,6.204644456119695,Fm-3m,1.504,0.074,0.074,1.267,0.039
738022,Nb2CoSn,Nb,Co,Sn,-7.646,0.152,6.478334175265187,F-43m,1.116,-0.006,0.399,0.69,0.005
487196,Nb2ZnCo,Nb,Co,Zn,-6.994,0.142,6.234699641074287,Fm-3m,-0.044,-0.005,-0.005,-0.036,-0.001
487680,Nb2AlCu,Nb,Cu,Al,-6.864,0.049,6.346692637733173,Fm-3m,0.0,0.0,0.0,0.0,0.0
487592,Nb2CuAs,Nb,Cu,As,-7.194,-0.055,6.312614349462736,Fm-3m,0.0,0.0,0.0,0.0,0.0
488285,Nb2CuB,Nb,Cu,B,-7.427,0.219,6.022875636333536,Fm-3m,0.0,0.0,0.0,0.0,0.0
488254,Nb2CuBi,Nb,Cu,Bi,-6.562,0.423,6.651329185756065,Fm-3m,0.0,0.0,0.0,0.0,0.0
488550,Nb2GaCu,Nb,Cu,Ga,-6.722,0.012,6.327701981071067,Fm-3m,0.0,0.0,0.0,0.0,0.0
487501,Nb2CuGe,Nb,Cu,Ge,-7.162,-0.03,6.323970159419212,Fm-3m,0.0,0.0,0.0,0.0,0.0
489110,Nb2InCu,Nb,Cu,In,-6.358,0.298,6.54001352919857,Fm-3m,0.0,0.0,0.0,0.0,0.0
488355,MgNb2Cu,Nb,Cu,Mg,-5.931,0.431,6.426065572433356,Fm-3m,0.0,0.0,0.0,0.0,0.0
488416,Nb2CuPb,Nb,Cu,Pb,-6.456,0.446,6.625429899716601,Fm-3m,0.0,0.0,0.0,0.0,0.0
487261,Nb2CuSb,Nb,Cu,Sb,-6.862,0.143,6.543752176059376,Fm-3m,0.0,0.0,0.0,0.0,0.0
488717,Nb2CuSi,Nb,Cu,Si,-7.444,-0.112,6.2444259636301425,Fm-3m,0.0,0.0,0.0,0.0,0.0
488451,Nb2CuSn,Nb,Cu,Sn,-6.804,0.15,6.53901583447411,Fm-3m,0.0,0.0,0.0,0.0,0.0
488745,Nb2ZnCu,Nb,Cu,Zn,-6.126,0.166,6.286677144904198,Fm-3m,0.0,0.0,0.0,0.0,0.0
487053,Nb2AlFe,Nb,Fe,Al,-8.084,-0.024,6.337012328469638,Fm-3m,2.144,-0.03,-0.03,2.127,0.028
488825,Nb2FeAs,Nb,Fe,As,-8.397,-0.11,6.291666145246997,Fm-3m,1.908,-0.16,-0.16,2.156,0.05
487624,Nb2FeB,Nb,Fe,B,-8.624,0.169,6.017578081182244,Fm-3m,2.152,-0.01,-0.01,1.98,0.085
488809,Nb2FeBi,Nb,Fe,Bi,-7.76,0.374,6.629315569591651,Fm-3m,1.888,-0.244,-0.244,2.392,0.036
488295,Nb2GaFe,Nb,Fe,Ga,-7.93,-0.048,6.317295216037365,Fm-3m,2.156,-0.034,-0.034,2.134,0.051
488500,Nb2FeGe,Nb,Fe,Ge,-8.372,-0.092,6.308328616843471,Fm-3m,1.888,-0.151,-0.151,2.149,0.048
737924,Nb2InFe,Nb,Fe,In,-7.54,0.264,6.469936113181017,F-43m,2.896,-0.102,1.049,1.879,-0.014
487526,MgNb2Fe,Nb,Fe,Mg,-7.172,0.337,6.3979159881300935,Fm-3m,1.792,-0.074,-0.074,1.97,0.0
487250,Nb2FePb,Nb,Fe,Pb,-7.644,0.406,6.606299464505709,Fm-3m,1.712,-0.294,-0.294,2.354,0.035
487234,Nb2FeSb,Nb,Fe,Sb,-8.085,0.068,6.512339479270673,Fm-3m,1.896,-0.216,-0.216,2.321,0.039
488179,Nb2FeSi,Nb,Fe,Si,-8.668,-0.188,6.234699641074287,Fm-3m,1.936,-0.118,-0.118,2.105,0.046
488622,Nb2FeSn,Nb,Fe,Sn,-8.012,0.091,6.528271334678569,Fm-3m,1.772,-0.249,-0.249,2.302,0.04
487283,Nb2ZnFe,Nb,Fe,Zn,-7.268,0.172,6.234425220437867,Fm-3m,-0.044,-0.002,-0.002,-0.055,-0.001
745645,Nb2AlIr,Nb,Ir,Al,-8.49,-0.292,6.390741822000689,F-43m,0.024,0.002,0.014,0.003,0.0
489294,Nb2AsIr,Nb,Ir,As,-8.606,-0.182,6.4310986418750105,Fm-3m,0.0,0.0,0.0,0.0,0.0
489153,Nb2BIr,Nb,Ir,B,-8.676,0.254,6.199236812060059,Fm-3m,0.0,0.0,0.0,0.0,0.0
489114,Nb2BiIr,Nb,Ir,Bi,-8.022,0.248,6.699205370970908,Fm-3m,0.0,0.0,0.0,0.0,0.0
745648,Nb2GaIr,Nb,Ir,Ga,-8.193,-0.175,6.400520790953555,F-43m,0.016,0.001,0.008,0.002,0.0
487582,Nb2GeIr,Nb,Ir,Ge,-8.536,-0.12,6.435093674421579,Fm-3m,0.0,0.0,0.0,0.0,0.0
745651,Nb2InIr,Nb,Ir,In,-7.94,0.001,6.574002412418263,F-43m,0.012,0.0,0.005,0.001,0.0
1146457,MgNb2Ir,Nb,Ir,Mg,-7.682,-0.035,6.4620271157859985,F-43m,1.004,0.055,0.679,0.117,0.004
745654,Nb2IrPb,Nb,Ir,Pb,-7.915,0.272,6.661680716419082,F-43m,0.452,-0.007,0.287,0.103,0.006
487542,Nb2SbIr,Nb,Ir,Sb,-8.289,0.001,6.603365287142394,Fm-3m,0.0,0.0,0.0,0.0,0.0
745646,Nb2SiIr,Nb,Ir,Si,-8.828,-0.211,6.319833355644452,F-43m,0.008,0.002,0.003,0.0,0.0
745652,Nb2SnIr,Nb,Ir,Sn,-8.313,-0.074,6.576962841712262,F-43m,0.012,-0.002,0.007,0.002,0.0
1121896,Nb2ZnIr,Nb,Ir,Zn,-7.658,-0.08,6.37490170295699,F-43m,0.132,0.0,0.0,0.0,0.0
489299,LiNb2Al,Nb,Li,Al,-6.285,0.172,6.384074990272856,Fm-3m,0.0,0.0,0.0,0.0,0.0
737826,LiNb2As,Nb,Li,As,-6.623,0.061,6.36991084293523,F-43m,0.008,0.002,0.001,0.0,0.0
487469,LiNb2B,Nb,Li,B,-6.897,0.293,5.941807806416282,Fm-3m,0.0,0.0,0.0,0.0,0.0
737831,LiNb2Bi,Nb,Li,Bi,-6.266,0.265,6.711541701373882,F-43m,0.004,0.0,0.001,0.0,0.0
487619,LiNb2Ga,Nb,Li,Ga,-6.149,0.131,6.345500770543133,Fm-3m,0.0,0.0,0.0,0.0,0.0
488038,LiNb2Ge,Nb,Li,Ge,-6.612,0.065,6.325703338493053,Fm-3m,0.0,0.0,0.0,0.0,0.0
737827,LiNb2In,Nb,Li,In,-5.879,0.322,6.655666303228568,F-43m,0.972,0.558,0.201,0.009,0.011
737929,LiMgNb2,Nb,Li,Mg,-5.403,0.503,6.603732201922675,F-43m,0.036,0.016,0.011,0.0,0.0
737830,LiNb2Pb,Nb,Li,Pb,-6.089,0.358,6.721944826362879,F-43m,0.02,0.015,-0.003,0.0,0.0
737829,LiNb2Sb,Nb,Li,Sb,-6.509,0.042,6.591725166849562,F-43m,0.0,0.0,0.0,0.0,0.0
489265,LiNb2Si,Nb,Li,Si,-6.904,-0.027,6.239772071446631,Fm-3m,0.0,0.0,0.0,0.0,0.0
737828,LiNb2Sn,Nb,Li,Sn,-6.381,0.119,6.62846596853901,F-43m,0.12,0.075,0.016,0.0,-0.002
488374,LiNb2Zn,Nb,Li,Zn,-5.516,0.322,6.308730651680889,Fm-3m,0.0,0.0,0.0,0.0,0.0
737932,MgNb2Al,Nb,Mg,Al,-6.221,0.148,6.592584263417994,F-43m,0.604,0.313,0.195,-0.001,-0.002
737937,MgNb2As,Nb,Mg,As,-6.435,0.16,6.53477223154965,F-43m,0.072,-0.003,0.047,0.0,0.001
487268,MgNb2B,Nb,Mg,B,-6.46,0.642,6.193263581773729,Fm-3m,0.0,0.0,0.0,0.0,0.0
737942,MgNb2Bi,Nb,Mg,Bi,-6.068,0.375,6.850830169156671,F-43m,0.08,-0.012,0.06,0.0,0.0
737935,MgNb2Ga,Nb,Mg,Ga,-6.013,0.178,6.57770253275395,F-43m,0.3,0.156,0.095,0.0,-0.001
737936,MgNb2Ge,Nb,Mg,Ge,-6.443,0.146,6.535146888827822,F-43m,0.004,0.001,0.001,0.0,0.0
737938,MgNb2In,Nb,Mg,In,-5.836,0.276,6.766618402863252,F-43m,0.164,0.0,0.0,0.0,0.0
737941,MgNb2Pb,Nb,Mg,Pb,-5.974,0.384,6.827340902916362,F-43m,0.004,0.0,0.002,0.0,0.0
737940,MgNb2Sb,Nb,Mg,Sb,-6.315,0.147,6.724186733418954,F-43m,0.12,-0.006,0.082,0.0,0.003
737933,MgNb2Si,Nb,Mg,Si,-6.68,0.109,6.468151900795463,F-43m,0.004,0.001,0.001,0.0,0.0
737939,MgNb2Sn,Nb,Mg,Sn,-6.293,0.118,6.740542768735823,F-43m,0.004,0.002,0.001,0.0,0.0
737934,MgNb2Zn,Nb,Mg,Zn,-5.411,0.338,6.574989518409175,F-43m,0.64,0.345,0.165,0.002,0.005
737960,MnNb2Al,Nb,Mn,Al,-8.225,0.015,6.279111129553886,F-43m,1.996,-0.36,0.462,1.88,-0.023
487398,MnNb2As,Nb,Mn,As,-8.513,-0.046,6.3140862268682625,Fm-3m,1.584,-0.303,-0.303,2.104,0.048
488915,MnNb2B,Nb,Mn,B,-8.724,0.249,6.005032814320028,Fm-3m,0.8,-0.165,-0.165,1.075,0.03
488640,MnNb2Bi,Nb,Mn,Bi,-7.906,0.407,6.656268233766093,Fm-3m,1.212,-0.622,-0.622,2.576,0.028
487022,MnNb2Ga,Nb,Mn,Ga,-8.04,0.021,6.306719964825021,Fm-3m,0.98,-0.21,-0.21,1.409,-0.008
737964,MnNb2Ge,Nb,Mn,Ge,-8.416,0.043,6.2689494223720565,F-43m,2.888,-0.233,0.82,2.187,-0.018
737966,MnNb2In,Nb,Mn,In,-7.737,0.247,6.479223602554966,F-43m,2.316,-0.437,0.289,2.493,-0.043
487788,MgMnNb2,Nb,Mn,Mg,-7.345,0.344,6.358059083649528,Fm-3m,0.0,0.0,0.0,0.001,0.0
737969,MnNb2Pb,Nb,Mn,Pb,-7.837,0.392,6.638888864249834,F-43m,3.08,-0.419,0.599,2.836,-0.025
488137,MnNb2Sb,Nb,Mn,Sb,-8.218,0.115,6.538891101225292,Fm-3m,1.456,-0.461,-0.461,2.413,0.033
487257,MnNb2Si,Nb,Mn,Si,-8.763,-0.103,6.2371683404576235,Fm-3m,1.14,-0.247,-0.247,1.605,0.028
737967,MnNb2Sn,Nb,Mn,Sn,-8.204,0.078,6.543752176059376,F-43m,3.004,-0.389,0.689,2.612,-0.026
488618,MnNb2Zn,Nb,Mn,Zn,-7.494,0.126,6.246066858716479,Fm-3m,-0.008,-0.001,-0.001,-0.005,0.0
486932,Nb2AlNi,Nb,Ni,Al,-7.385,-0.01,6.310204341205049,Fm-3m,0.0,0.0,0.0,0.0,0.0
487001,Nb2NiAs,Nb,Ni,As,-7.796,-0.195,6.2709843992800245,Fm-3m,0.0,0.0,0.0,0.0,0.0