id,formula,X,Y,Z,energy,formation,lat,spacegroup,tot_mag,X1_mag,X2_mag,Y_mag,Z_mag
20353,Mn2CoSn,Mn,Co,Sn,-7.17,0.095,6.090480538510831,F-43m,7.164,2.917,3.028,1.189,-0.108
471860,Mn2ZnCo,Mn,Co,Zn,-6.549,0.053,5.772841718929645,Fm-3m,7.668,3.041,3.041,1.514,-0.038
716429,Mn2AlCu,Mn,Cu,Al,-6.445,-0.066,5.6981013477314955,F-43m,0.02,2.132,-2.067,-0.006,-0.019
472249,Mn2CuAs,Mn,Cu,As,-6.469,0.136,5.76675390886015,Fm-3m,3.644,1.78,1.78,0.125,-0.088
472942,Mn2CuB,Mn,Cu,B,-6.818,0.294,5.513290173869631,Fm-3m,5.084,2.526,2.526,0.132,-0.168
472912,Mn2CuBi,Mn,Cu,Bi,-6.009,0.444,6.306183565080582,Fm-3m,6.672,3.227,3.227,0.059,-0.071
473205,Mn2GaCu,Mn,Cu,Ga,-6.175,0.025,5.868393660530453,Fm-3m,5.504,2.735,2.735,0.068,-0.133
472159,Mn2CuGe,Mn,Cu,Ge,-6.552,0.046,5.840227676117843,Fm-3m,4.62,2.291,2.291,0.092,-0.127
473770,Mn2InCu,Mn,Cu,In,-5.865,0.257,6.1249359982205815,Fm-3m,6.076,3.039,3.039,0.025,-0.138
473011,MgMn2Cu,Mn,Cu,Mg,-5.513,0.315,6.003849381700465,Fm-3m,6.324,3.088,3.088,0.084,-0.032
473069,Mn2CuPb,Mn,Cu,Pb,-5.941,0.427,6.289240052662533,Fm-3m,6.856,3.339,3.339,0.052,-0.096
471929,Mn2CuSb,Mn,Cu,Sb,-6.252,0.22,6.102104442764919,Fm-3m,5.632,2.768,2.768,0.069,-0.096
734008,Mn2CuSi,Mn,Cu,Si,-6.897,-0.098,5.720679985016089,F-43m,1.016,2.641,-1.667,-0.012,0.017
473105,Mn2CuSn,Mn,Cu,Sn,-6.261,0.16,6.12948193406414,Fm-3m,6.152,3.028,3.028,0.053,-0.136
734009,Mn2ZnCu,Mn,Cu,Zn,-5.634,0.124,5.730279005325353,F-43m,0.86,2.971,-2.337,0.108,-0.005
716381,Mn2AlFe,Mn,Fe,Al,-7.656,-0.129,5.713663741827561,F-43m,2.78,2.002,-0.802,1.598,-0.028
733956,Mn2FeAs,Mn,Fe,As,-7.823,-0.07,5.696293887121595,F-43m,2.96,2.705,-0.648,0.841,0.032
733950,Mn2FeB,Mn,Fe,B,-8.211,0.049,5.35192814886674,F-43m,1.148,2.079,-1.017,-0.025,0.035
473470,Mn2FeBi,Mn,Fe,Bi,-7.149,0.451,6.224942876741234,Fm-3m,8.88,3.103,3.103,2.508,-0.03
716384,Mn2GaFe,Mn,Fe,Ga,-7.422,-0.074,5.74776724906699,F-43m,1.056,2.738,-1.971,0.248,0.004
732896,Mn2FeGe,Mn,Fe,Ge,-7.886,-0.14,5.721983435258574,F-43m,2.008,-1.2,2.616,0.548,0.008
473287,Mn2InFe,Mn,Fe,In,-7.023,0.248,6.052138214685819,Fm-3m,7.748,2.831,2.831,2.109,-0.121
472183,MgMn2Fe,Mn,Fe,Mg,-6.619,0.357,5.866069728060081,Fm-3m,6.54,2.732,2.732,1.03,-0.03
471919,Mn2FePb,Mn,Fe,Pb,-7.08,0.436,6.167292201782955,Fm-3m,8.136,2.902,2.902,2.316,-0.094
716389,Mn2FeSb,Mn,Fe,Sb,-7.538,0.082,5.959129641834283,F-43m,3.004,2.901,-1.008,1.053,0.015
733952,Mn2FeSi,Mn,Fe,Si,-8.307,-0.36,5.576603063438698,F-43m,2.004,2.327,-0.703,0.342,0.01
473275,Mn2FeSn,Mn,Fe,Sn,-7.462,0.107,6.051118796804684,Fm-3m,7.996,2.827,2.827,2.32,-0.108
471951,Mn2ZnFe,Mn,Fe,Zn,-6.739,0.168,5.735471830102055,Fm-3m,6.436,2.544,2.544,1.305,-0.045
744251,Mn2AlIr,Mn,Ir,Al,-8.076,-0.412,5.90823326265277,F-43m,2.008,2.998,-1.309,0.231,0.014
744256,Mn2AsIr,Mn,Ir,As,-7.875,0.015,5.958829252195613,F-43m,3.9,3.201,0.279,0.227,0.041
744250,Mn2BIr,Mn,Ir,B,-8.358,0.038,5.598298802981777,F-43m,2.016,2.587,-0.782,0.077,0.051
473774,Mn2BiIr,Mn,Ir,Bi,-7.372,0.364,6.434836080054495,Fm-3m,7.848,3.539,3.539,0.537,-0.052
744254,Mn2GaIr,Mn,Ir,Ga,-7.61,-0.125,5.955071823618275,F-43m,4.636,2.242,2.224,0.099,-0.054
744255,Mn2GeIr,Mn,Ir,Ge,-8.042,-0.159,5.928180800839018,F-43m,3.004,3.053,-0.36,0.173,0.026
473859,Mn2InIr,Mn,Ir,In,-7.348,0.059,6.261884586731496,Fm-3m,7.84,3.505,3.505,0.636,-0.07
472895,MgMn2Ir,Mn,Ir,Mg,-7.125,-0.012,6.128488086795296,Fm-3m,7.452,3.412,3.412,0.429,-0.024
472247,Mn2IrPb,Mn,Ir,Pb,-7.299,0.354,6.377525335528666,Fm-3m,7.78,3.507,3.507,0.547,-0.066
744259,Mn2SbIr,Mn,Ir,Sb,-7.685,0.071,6.0998118727253905,F-43m,3.984,3.281,0.375,0.213,0.008
744252,Mn2SiIr,Mn,Ir,Si,-8.467,-0.384,5.816993365211307,F-43m,3.0,2.935,-0.221,0.16,0.022
744258,Mn2SnIr,Mn,Ir,Sn,-7.687,0.019,6.167993221635517,F-43m,6.2,3.095,2.756,0.23,-0.072
472663,Mn2ZnIr,Mn,Ir,Zn,-7.069,-0.025,6.008432587470416,Fm-3m,7.384,3.338,3.338,0.527,-0.035
733937,LiMn2Al,Mn,Li,Al,-5.943,-0.019,5.637671187830877,F-43m,-0.0,0.014,-0.014,0.0,0.0
716374,LiMn2As,Mn,Li,As,-6.306,-0.155,5.750026464906547,F-43m,2.0,2.886,-1.04,0.023,0.039
733936,LiMn2B,Mn,Li,B,-6.539,0.118,5.273320295063115,F-43m,-0.0,1.269,-1.235,0.027,-0.035
473953,LiMn2Bi,Mn,Li,Bi,-5.701,0.297,6.4612607008922796,Fm-3m,7.14,3.425,3.425,-0.016,-0.052
716372,LiMn2Ga,Mn,Li,Ga,-5.733,0.013,5.652065446850866,F-43m,-0.008,0.003,-0.007,0.0,0.0
733941,LiMn2Ge,Mn,Li,Ge,-6.24,-0.097,5.635824752188001,F-43m,1.004,2.371,-1.4,0.023,-0.003
473579,LiMgMn2,Mn,Li,Mg,-4.932,0.441,6.1661702384241615,Fm-3m,6.388,3.216,3.216,-0.069,-0.049
472521,LiMn2Pb,Mn,Li,Pb,-5.583,0.331,6.399479124275391,Fm-3m,6.888,3.38,3.38,-0.031,-0.111
716377,LiMn2Sb,Mn,Li,Sb,-6.059,-0.042,6.084723937218226,F-43m,2.036,3.302,-1.471,0.03,0.037
733938,LiMn2Si,Mn,Li,Si,-6.546,-0.203,5.510305746190284,F-43m,0.976,1.572,-0.599,0.007,-0.011
740326,LiMn2Sn,Mn,Li,Sn,-5.889,0.077,6.242373631278406,Fm-3m,6.376,3.155,3.155,-0.024,-0.152
733939,LiMn2Zn,Mn,Li,Zn,-5.069,0.235,5.6359926599715715,F-43m,0.72,0.449,0.254,-0.009,-0.009
473583,MgMn2Al,Mn,Mg,Al,-5.797,0.038,6.059700305045916,Fm-3m,4.964,2.504,2.504,-0.024,-0.075
733875,MgMn2As,Mn,Mg,As,-5.904,0.158,6.0243455267241295,F-43m,2.864,3.075,-0.421,0.011,0.044
733869,MgMn2B,Mn,Mg,B,-6.169,0.4,5.50643874034537,F-43m,1.0,1.769,-0.8,0.008,0.003
473282,MgMn2Bi,Mn,Mg,Bi,-5.527,0.382,6.552334890050221,Fm-3m,6.556,3.231,3.231,-0.039,-0.059
473898,MgMn2Ga,Mn,Mg,Ga,-5.591,0.066,6.11653669371018,Fm-3m,5.872,2.931,2.931,-0.026,-0.13
471582,MgMn2Ge,Mn,Mg,Ge,-5.938,0.117,6.08544410812532,Fm-3m,5.824,2.874,2.874,-0.022,-0.101
473423,MgMn2In,Mn,Mg,In,-5.393,0.186,6.420118979559521,Fm-3m,6.572,3.266,3.266,-0.036,-0.122
471655,MgMn2Pb,Mn,Mg,Pb,-5.458,0.367,6.5148536050963335,Fm-3m,6.868,3.336,3.336,-0.029,-0.053
473220,MgMn2Sb,Mn,Mg,Sb,-5.741,0.188,6.411567621279188,Fm-3m,6.376,3.124,3.124,-0.031,-0.043
471629,MgMn2Si,Mn,Mg,Si,-6.238,0.018,5.849438668227904,Fm-3m,3.832,1.909,1.909,-0.015,-0.088
473512,MgMn2Sn,Mn,Mg,Sn,-5.76,0.118,6.37096220022157,Fm-3m,6.396,3.142,3.142,-0.028,-0.105
473395,MgMn2Zn,Mn,Mg,Zn,-5.017,0.199,6.075924091842818,Fm-3m,5.648,2.852,2.852,-0.036,-0.086
716309,Mn2AlNi,Mn,Ni,Al,-7.092,-0.251,5.760974629315787,F-43m,1.204,2.853,-1.977,0.298,0.002
733861,Mn2NiAs,Mn,Ni,As,-7.088,-0.02,5.822190064719753,F-43m,4.476,3.029,0.755,0.529,0.039
716308,Mn2NiB,Mn,Ni,B,-7.456,0.118,5.413227744845823,F-43m,2.908,2.462,-0.231,0.551,0.022
716319,Mn2NiBi,Mn,Ni,Bi,-6.517,0.398,6.290183755499116,F-43m,5.948,3.184,2.143,0.372,-0.043
716312,Mn2GaNi,Mn,Ni,Ga,-6.763,-0.1,5.687898816778661,F-43m,2.884,2.676,-0.384,0.461,-0.016
733860,Mn2NiGe,Mn,Ni,Ge,-7.163,-0.102,5.796271880810858,F-43m,3.952,2.928,0.438,0.5,0.002
733862,Mn2InNi,Mn,Ni,In,-6.405,0.18,6.105826199194713,F-43m,7.224,3.334,3.21,0.539,-0.088
473498,MgMn2Ni,Mn,Ni,Mg,-6.103,0.188,5.935153532644953,Fm-3m,7.384,3.265,3.265,0.751,-0.019
716318,Mn2NiPb,Mn,Ni,Pb,-6.437,0.394,6.2537129937515745,F-43m,6.996,3.377,2.97,0.463,-0.063
733864,Mn2NiSb,Mn,Ni,Sb,-6.878,0.057,6.097947889854752,F-43m,4.74,3.196,0.985,0.45,-0.001
733857,Mn2SiNi,Mn,Ni,Si,-7.545,-0.283,5.662563735116166,F-43m,3.804,2.77,0.456,0.502,0.006
676576,Mn2NiSn,Mn,Ni,Sn,-6.84,0.044,6.019933701252534,F-43m,3.988,3.055,0.451,0.433,-0.026
733858,Mn2ZnNi,Mn,Ni,Zn,-6.251,-0.03,5.7813112289595106,F-43m,1.584,3.186,-2.272,0.487,0.0
736077,Mn2AlPd,Mn,Pd,Al,-6.983,-0.239,5.864519416203946,F-43m,1.296,3.111,-2.053,0.143,0.01
472936,Mn2AsPd,Mn,Pd,As,-6.984,-0.014,6.102390892921085,Fm-3m,7.084,3.357,3.357,0.214,-0.079
736076,Mn2BPd,Mn,Pd,B,-7.191,0.286,5.68195793110817,F-43m,3.028,3.058,-0.511,0.274,0.047
472038,Mn2BiPd,Mn,Pd,Bi,-6.633,0.184,6.457425896323068,Fm-3m,7.504,3.559,3.559,0.184,-0.082
473651,Mn2GaPd,Mn,Pd,Ga,-6.667,-0.101,6.101531461757981,Fm-3m,7.356,3.491,3.491,0.283,-0.127
736081,Mn2GePd,Mn,Pd,Ge,-7.028,-0.065,5.983063347730184,F-43m,4.024,3.197,0.471,0.245,-0.002
736083,Mn2InPd,Mn,Pd,In,-6.477,0.01,6.378705266237463,F-43m,7.728,3.699,3.545,0.257,-0.089
471568,MgMn2Pd,Mn,Pd,Mg,-6.154,0.039,6.186582151375508,Fm-3m,7.84,3.651,3.651,0.369,-0.025
471931,Mn2PdPb,Mn,Pd,Pb,-6.532,0.202,6.406633746593985,Fm-3m,7.6,3.613,3.613,0.209,-0.108
471687,Mn2SbPd,Mn,Pd,Sb,-6.814,0.023,6.300680198666481,Fm-3m,6.928,3.318,3.318,0.176,-0.099
736078,Mn2SiPd,Mn,Pd,Si,-7.364,-0.2,5.868083909208428,F-43m,3.976,3.115,0.514,0.264,0.004
472419,Mn2SnPd,Mn,Pd,Sn,-6.816,-0.03,6.286542197127037,Fm-3m,7.096,3.411,3.411,0.19,-0.156
744654,Mn2AlPt,Mn,Pt,Al,-7.215,-0.251,5.884147813062546,F-43m,5.98,2.645,2.611,0.244,-0.044
473241,Mn2AsPt,Mn,Pt,As,-7.218,-0.028,6.149996695087125,Fm-3m,7.056,3.352,3.352,0.225,-0.094
744653,Mn2BPt,Mn,Pt,B,-7.521,0.176,5.656402796967129,F-43m,2.992,2.937,-0.306,0.212,0.044
474048,Mn2BiPt,Mn,Pt,Bi,-6.876,0.161,6.4892445403226,Fm-3m,7.58,3.589,3.589,0.196,-0.086
472906,Mn2GaPt,Mn,Pt,Ga,-6.968,-0.183,6.118816750468105,Fm-3m,7.372,3.461,3.461,0.312,-0.102
472316,Mn2GePt,Mn,Pt,Ge,-7.258,-0.075,6.156054143579653,Fm-3m,7.324,3.437,3.437,0.291,-0.094
472598,Mn2InPt,Mn,Pt,In,-6.77,-0.063,6.322903115312413,Fm-3m,7.652,3.595,3.595,0.283,-0.094
473572,MgMn2Pt,Mn,Pt,Mg,-6.564,-0.151,6.194236753314224,Fm-3m,7.864,3.641,3.641,0.379,-0.02
471873,Mn2PtPb,Mn,Pt,Pb,-6.801,0.152,6.455122825606541,Fm-3m,7.892,3.685,3.685,0.276,-0.06
472528,Mn2SbPt,Mn,Pt,Sb,-7.042,0.015,6.338472897930341,Fm-3m,7.1,3.367,3.367,0.218,-0.083
744655,Mn2SiPt,Mn,Pt,Si,-7.672,-0.288,5.887996278353034,F-43m,3.988,3.151,0.502,0.234,0.008
473118,Mn2SnPt,Mn,Pt,Sn,-7.071,-0.065,6.308730651680889,Fm-3m,7.208,3.422,3.422,0.233,-0.132
1122687,Mn2ZnPt,Mn,Pt,Zn,-6.5,-0.156,6.14025159271379,F-43m,7.784,3.734,3.568,0.28,-0.051
736091,Mn2AlRh,Mn,Rh,Al,-7.671,-0.404,5.911287402903428,F-43m,1.964,3.164,-1.655,0.345,0.011
736096,Mn2AsRh,Mn,Rh,As,-7.597,-0.103,5.927877266325759,F-43m,3.964,3.227,0.201,0.383,0.04
736090,Mn2BRh,Mn,Rh,B,-7.966,0.035,5.575916986716192,F-43m,2.012,2.728,-1.03,0.201,0.042
473531,Mn2GaRh,Mn,Rh,Ga,-7.225,-0.136,6.050536118053195,Fm-3m,7.684,3.419,3.419,0.724,-0.088
736095,Mn2GeRh,Mn,Rh,Ge,-7.713,-0.226,5.9189089783931275,F-43m,2.972,3.162,-0.607,0.319,0.029
736097,Mn2InRh,Mn,Rh,In,-7.002,0.009,6.197154434741126,F-43m,7.5,3.47,3.488,0.4,-0.098
473872,MgMn2Rh,Mn,Rh,Mg,-6.703,0.014,6.1382705467325405,Fm-3m,7.752,3.498,3.498,0.605,-0.025
736100,Mn2RhPb,Mn,Rh,Pb,-7.042,0.214,6.39296101106242,F-43m,7.624,3.568,3.442,0.415,-0.075
736099,Mn2SbRh,Mn,Rh,Sb,-7.416,-0.055,6.074768121572234,F-43m,3.976,3.276,0.293,0.33,0.005
736092,Mn2SiRh,Mn,Rh,Si,-8.094,-0.407,5.801664207338419,F-43m,2.996,3.019,-0.428,0.299,0.021
736098,Mn2SnRh,Mn,Rh,Sn,-7.403,-0.094,6.286812086888117,F-43m,7.332,3.469,3.287,0.417,-0.097
472744,Mn2ZnRh,Mn,Rh,Zn,-6.699,-0.051,6.025227116775015,Fm-3m,7.744,3.483,3.483,0.637,-0.049
736049,Mn2AlRu,Mn,Ru,Al,-7.923,-0.172,5.7980175547387915,F-43m,2.896,1.904,0.87,0.074,-0.012
736054,Mn2AsRu,Mn,Ru,As,-8.05,-0.073,5.8761268398385536,F-43m,2.976,2.963,-0.27,0.119,0.047
736048,Mn2BRu,Mn,Ru,B,-8.373,0.11,5.574887554958889,F-43m,2.412,0.0,0.0,0.0,0.0
736059,Mn2BiRu,Mn,Ru,Bi,-7.395,0.428,6.2561667134620595,F-43m,6.064,3.112,2.65,0.181,-0.052
736052,Mn2GaRu,Mn,Ru,Ga,-7.64,-0.068,5.870561004786579,F-43m,3.168,1.82,1.343,-0.066,-0.035
736053,Mn2GeRu,Mn,Ru,Ge,-8.147,-0.177,5.832869260133601,F-43m,2.004,2.784,-0.974,0.084,0.033
474025,Mn2InRu,Mn,Ru,In,-7.299,0.195,6.230855551623995,Fm-3m,7.552,3.354,3.354,0.7,-0.092
471848,MgMn2Ru,Mn,Ru,Mg,-6.982,0.217,6.101388199690266,Fm-3m,7.092,3.301,3.301,0.287,-0.025
736058,Mn2RuPb,Mn,Ru,Pb,-7.344,0.396,6.331961537301879,F-43m,7.216,3.379,3.41,0.251,-0.069
736057,Mn2SbRu,Mn,Ru,Sb,-7.825,0.018,6.110829102382764,F-43m,3.0,3.178,-0.493,0.182,0.027
736050,Mn2SiRu,Mn,Ru,Si,-8.558,-0.388,5.775241271005348,F-43m,1.996,2.658,-0.813,0.058,0.03
736056,Mn2SnRu,Mn,Ru,Sn,-7.713,0.08,6.1668715133640655,F-43m,6.82,3.173,3.19,0.292,-0.084
1122688,Mn2ZnRu,Mn,Ru,Zn,-7.008,0.122,5.899358352130249,F-43m,4.1,2.803,1.397,-0.189,-0.024
737724,AlAgMo2,Mo,Ag,Al,-6.806,0.26,6.3447059436079645,F-43m,0.012,0.008,-0.002,0.001,0.0
448624,AgMo2As,Mo,Ag,As,-6.848,0.445,6.308194593842797,Fm-3m,0.0,0.0,0.0,0.0,0.0
447962,AgBMo2,Mo,Ag,B,-6.918,0.881,6.059700305045916,Fm-3m,0.0,0.0,0.0,0.0,0.0
737734,AgBiMo2,Mo,Ag,Bi,-6.35,0.789,6.677387195742088,F-43m,0.052,0.659,-0.581,-0.008,-0.023
737727,GaAgMo2,Mo,Ag,Ga,-6.511,0.377,6.368990620532568,F-43m,0.008,0.006,-0.002,0.0,0.0
449912,AgGeMo2,Mo,Ag,Ge,-6.827,0.459,6.327435568339722,Fm-3m,0.0,0.0,0.0,0.0,0.0
737730,InAgMo2,Mo,Ag,In,-6.303,0.507,6.536395436274965,F-43m,0.02,0.025,-0.014,0.001,0.0
448104,MgAgMo2,Mo,Ag,Mg,-5.647,0.868,6.423998440881598,Fm-3m,0.0,0.0,0.0,0.0,0.0
737733,AgMo2Pb,Mo,Ag,Pb,-6.292,0.763,6.635620085353982,F-43m,0.024,0.036,-0.018,0.001,0.0
449515,AgSbMo2,Mo,Ag,Sb,-6.638,0.521,6.497592796991996,Fm-3m,0.0,0.0,0.0,0.0,0.0
449219,SiAgMo2,Mo,Ag,Si,-7.119,0.367,6.237579600404778,Fm-3m,0.0,0.0,0.0,0.0,0.0
737731,AgSnMo2,Mo,Ag,Sn,-6.669,0.439,6.542008005953629,F-43m,0.008,0.009,-0.005,0.0,0.0
748529,ZnAgMo2,Mo,Ag,Zn,-5.964,0.482,6.352116598646011,F-43m,0.016,0.018,-0.011,0.001,0.0
745547,AlMo2Au,Mo,Au,Al,-7.033,0.144,6.358586767201096,F-43m,0.004,0.005,-0.001,0.001,0.0
447778,Mo2AsAu,Mo,Au,As,-7.146,0.258,6.327435568339722,Fm-3m,0.0,0.0,0.0,0.0,0.0
449815,BMo2Au,Mo,Au,B,-7.187,0.723,6.110114903420838,Fm-3m,0.0,0.0,0.0,0.0,0.0
449741,BiMo2Au,Mo,Au,Bi,-6.635,0.616,6.618497238629011,Fm-3m,0.0,0.0,0.0,0.0,0.0
745550,GaMo2Au,Mo,Au,Ga,-6.693,0.306,6.380932833993026,F-43m,0.044,0.038,-0.006,0.005,0.0
448275,GeMo2Au,Mo,Au,Ge,-7.117,0.28,6.3523809452452324,Fm-3m,0.0,0.0,0.0,0.0,0.0
745553,InMo2Au,Mo,Au,In,-6.482,0.439,6.550470995402792,F-43m,0.064,0.057,-0.011,0.006,0.0
1141998,MgMo2Au,Mo,Au,Mg,-6.343,0.277,6.418954226453489,F-43m,0.0,5.0,5.0,0.0,0.0
449734,Mo2PbAu,Mo,Au,Pb,-6.494,0.673,6.57770253275395,Fm-3m,0.0,0.0,0.0,0.0,0.0
448918,SbMo2Au,Mo,Au,Sb,-6.918,0.352,6.506171653045762,Fm-3m,0.0,0.0,0.0,0.0,0.0
449464,SiMo2Au,Mo,Au,Si,-7.396,0.201,6.281680213596549,Fm-3m,0.0,0.0,0.0,0.0,0.0
449012,SnMo2Au,Mo,Au,Sn,-6.843,0.376,6.513596784784821,Fm-3m,0.0,0.0,0.0,0.0,0.0
745549,ZnMo2Au,Mo,Au,Zn,-6.209,0.348,6.357927149074909,F-43m,0.028,0.028,-0.013,0.003,0.0
737738,AlCdMo2,Mo,Cd,Al,-6.336,0.25,6.409231469634495,F-43m,0.004,0.001,0.0,0.0,0.0
449144,CdMo2As,Mo,Cd,As,-6.294,0.518,6.393613420599664,Fm-3m,0.0,0.0,0.0,0.0,0.0
449738,CdBMo2,Mo,Cd,B,-6.321,0.998,6.133879388475917,Fm-3m,0.0,0.0,0.0,0.0,0.0
737748,CdBiMo2,Mo,Cd,Bi,-5.858,0.8,6.792725785288609,F-43m,0.632,0.852,-0.401,0.031,0.018
737741,CdGaMo2,Mo,Cd,Ga,-6.035,0.372,6.427485954292433,F-43m,0.008,0.002,0.001,0.0,0.0
737742,CdGeMo2,Mo,Cd,Ge,-6.305,0.5,6.439855455007083,F-43m,-0.008,0.035,-0.036,0.001,-0.002
737744,CdInMo2,Mo,Cd,In,-5.832,0.497,6.6053216950154425,F-43m,0.004,0.006,-0.004,0.0,0.0
450124,MgCdMo2,Mo,Cd,Mg,-5.206,0.828,6.5050375150239965,Fm-3m,0.0,0.0,0.0,0.0,0.0
737747,CdMo2Pb,Mo,Cd,Pb,-5.774,0.802,6.720055744057618,F-43m,-0.0,0.024,-0.024,0.0,-0.001
449355,CdSbMo2,Mo,Cd,Sb,-6.122,0.557,6.582629560331879,Fm-3m,0.0,0.0,0.0,0.0,0.0
737739,CdSiMo2,Mo,Cd,Si,-6.591,0.414,6.345368313214774,F-43m,0.004,0.011,-0.01,0.0,0.0
737745,CdSnMo2,Mo,Cd,Sn,-6.145,0.483,6.611916030537975,F-43m,-0.0,0.032,-0.032,0.001,-0.002
748580,ZnCdMo2,Mo,Cd,Zn,-5.53,0.436,6.421283310194326,F-43m,0.0,0.001,0.0,0.0,0.0
737710,AlCoMo2,Mo,Co,Al,-8.176,-0.043,6.084579882578214,F-43m,0.008,0.003,-0.001,0.0,0.0
448995,CoMo2As,Mo,Co,As,-8.247,0.113,6.065359511206053,Fm-3m,0.264,-0.031,-0.031,0.337,0.002
447690,CoBMo2,Mo,Co,B,-8.559,0.307,5.791346588479412,Fm-3m,1.196,0.016,0.016,1.056,0.059
737720,CoBiMo2,Mo,Co,Bi,-7.59,0.617,6.4075431892616646,F-43m,1.972,0.972,-0.297,1.278,-0.002
737713,GaCoMo2,Mo,Co,Ga,-7.868,0.087,6.1086860043945705,F-43m,0.012,0.007,-0.006,0.006,-0.001
737714,CoGeMo2,Mo,Co,Ge,-8.225,0.127,6.1073994234794355,F-43m,0.948,0.324,-0.163,0.822,-0.009
737716,InCoMo2,Mo,Co,In,-7.528,0.349,6.299605249474365,F-43m,0.04,0.02,-0.023,0.05,-0.003
449206,MgCoMo2,Mo,Co,Mg,-6.967,0.615,6.143362084738567,Fm-3m,0.0,0.0,0.0,0.0,0.0
737719,CoMo2Pb,Mo,Co,Pb,-7.511,0.612,6.376607309701167,F-43m,1.204,0.494,-0.281,1.041,-0.016
737718,CoSbMo2,Mo,Co,Sb,-7.95,0.276,6.281815370345383,F-43m,1.86,0.742,-0.187,1.3,-0.001
737711,CoSiMo2,Mo,Co,Si,-8.593,-0.041,6.014483528287988,F-43m,0.828,0.259,-0.117,0.729,-0.004
737717,CoSnMo2,Mo,Co,Sn,-7.953,0.222,6.306183565080582,F-43m,1.08,0.394,-0.227,0.974,-0.021
1122676,ZnCoMo2,Mo,Co,Zn,-7.258,0.255,6.091630553745586,F-43m,0.868,-0.046,0.3,0.605,0.001
737752,AlCuMo2,Mo,Cu,Al,-7.212,0.077,6.172615961353146,F-43m,0.004,0.001,0.0,0.0,0.0
448320,CuMo2As,Mo,Cu,As,-7.308,0.208,6.127493917080567,Fm-3m,0.0,0.0,0.0,0.0,0.0
449014,CuBMo2,Mo,Cu,B,-7.591,0.431,5.824391925080016,Fm-3m,0.0,0.0,0.0,0.0,0.0
696507,CuBiMo2,Mo,Cu,Bi,-6.696,0.667,6.508942327126181,F-43m,-0.0,0.144,-0.134,-0.005,-0.006
737755,GaCuMo2,Mo,Cu,Ga,-6.913,0.198,6.185048956078526,F-43m,-0.004,0.0,0.0,0.0,0.0
448231,CuGeMo2,Mo,Cu,Ge,-7.276,0.233,6.136004927279515,Fm-3m,0.0,0.0,0.0,0.0,0.0
737758,InCuMo2,Mo,Cu,In,-6.642,0.391,6.381325772773131,F-43m,0.0,0.001,0.0,0.0,0.0
449081,MgCuMo2,Mo,Cu,Mg,-6.038,0.7,6.227006713135649,Fm-3m,0.0,0.0,0.0,0.0,0.0
737761,CuMo2Pb,Mo,Cu,Pb,-6.631,0.648,6.472101334688458,F-43m,0.004,0.009,-0.007,0.0,0.0
737760,CuSbMo2,Mo,Cu,Sb,-7.022,0.361,6.374376717225969,F-43m,-0.0,0.014,-0.012,0.0,0.0
449441,CuSiMo2,Mo,Cu,Si,-7.617,0.093,6.055776192368027,Fm-3m,0.0,0.0,0.0,0.0,0.0
737759,CuSnMo2,Mo,Cu,Sn,-7.043,0.288,6.376607309701167,F-43m,0.004,0.001,0.0,0.0,0.0
1122685,ZnCuMo2,Mo,Cu,Zn,-6.329,0.341,6.185188368880468,F-43m,0.012,0.004,-0.001,0.0,0.0
737627,AlFeMo2,Mo,Fe,Al,-8.448,-0.011,6.085300087580274,F-43m,0.972,-0.162,0.246,0.91,-0.009
449557,FeMo2As,Mo,Fe,As,-8.576,0.088,6.109400537457327,Fm-3m,2.344,-0.047,-0.047,2.325,0.053
448351,FeBMo2,Mo,Fe,B,-8.917,0.253,5.822504718167806,Fm-3m,1.936,-0.1,-0.1,2.002,0.069
449542,FeBiMo2,Mo,Fe,Bi,-7.889,0.622,6.451793263775018,Fm-3m,2.448,-0.096,-0.096,2.593,0.034
449023,GaFeMo2,Mo,Fe,Ga,-8.156,0.103,6.122660497605479,Fm-3m,1.928,-0.149,-0.149,2.187,0.036
449220,FeGeMo2,Mo,Fe,Ge,-8.599,0.058,6.122802765950581,Fm-3m,1.904,-0.184,-0.184,2.231,0.042
737633,InFeMo2,Mo,Fe,In,-7.79,0.391,6.28937488469286,F-43m,1.596,-0.16,0.154,1.689,-0.029
448256,MgFeMo2,Mo,Fe,Mg,-7.362,0.524,6.186582151375508,Fm-3m,1.316,-0.283,-0.283,2.002,-0.005
447986,FeMo2Pb,Mo,Fe,Pb,-7.776,0.651,6.430324836231412,Fm-3m,2.16,-0.179,-0.179,2.515,0.023
447969,FeSbMo2,Mo,Fe,Sb,-8.269,0.262,6.329699361879568,Fm-3m,2.392,-0.08,-0.08,2.498,0.036
448906,FeSiMo2,Mo,Fe,Si,-8.967,-0.11,6.031830834376175,Fm-3m,1.904,-0.149,-0.149,2.146,0.043
737634,FeSnMo2,Mo,Fe,Sn,-8.21,0.27,6.28775651861699,F-43m,1.564,0.062,-0.047,1.617,-0.037
1122667,ZnFeMo2,Mo,Fe,Zn,-7.554,0.263,6.11182870055255,F-43m,1.948,0.471,-0.235,1.723,-0.009
745505,AlMo2Ir,Mo,Ir,Al,-8.807,-0.233,6.226181342761724,F-43m,-0.012,-0.001,0.001,0.0,0.0
450019,Mo2AsIr,Mo,Ir,As,-8.695,0.106,6.262836550957414,Fm-3m,0.0,0.0,0.0,0.0,0.0
745504,BMo2Ir,Mo,Ir,B,-8.831,0.476,6.008432587470416,F-43m,0.0,0.002,0.002,0.0,0.0
449841,BiMo2Ir,Mo,Ir,Bi,-8.085,0.563,6.534897122082353,Fm-3m,0.0,0.0,0.0,0.0,0.0
745508,GaMo2Ir,Mo,Ir,Ga,-8.441,-0.045,6.240046022014286,F-43m,0.0,0.0,0.0,0.0,0.0
745509,GeMo2Ir,Mo,Ir,Ge,-8.694,0.099,6.247433612996145,F-43m,0.552,0.444,-0.026,0.084,0.011
745511,InMo2Ir,Mo,Ir,In,-8.111,0.207,6.418048015046711,F-43m,0.004,0.001,0.0,0.0,0.0
1147237,MgMo2Ir,Mo,Ir,Mg,-7.976,0.048,6.285867371320834,F-43m,0.008,0.005,-0.002,0.001,0.0
745514,Mo2IrPb,Mo,Ir,Pb,-8.0,0.564,6.511584862870028,F-43m,0.992,0.893,-0.163,0.15,0.012
448271,SbMo2Ir,Mo,Ir,Sb,-8.401,0.266,6.427744138102885,Fm-3m,0.0,0.0,0.0,0.0,0.0
745506,SiMo2Ir,Mo,Ir,Si,-9.072,-0.078,6.162521034781254,F-43m,0.244,0.187,-0.008,0.034,0.003
745512,SnMo2Ir,Mo,Ir,Sn,-8.453,0.163,6.426065572433356,F-43m,0.716,0.587,-0.077,0.136,0.005
745507,ZnMo2Ir,Mo,Ir,Zn,-7.886,0.068,6.226456490533377,F-43m,0.0,-0.001,0.001,0.0,0.0
737530,LiAlMo2,Mo,Li,Al,-6.773,0.061,6.186582151375508,F-43m,-0.004,0.0,0.0,0.0,0.0
737535,LiMo2As,Mo,Li,As,-7.073,-0.012,6.1276359610770275,F-43m,-0.0,0.0,0.0,0.0,0.0
448202,LiBMo2,Mo,Li,B,-7.084,0.484,5.714480469552718,Fm-3m,0.0,0.0,0.0,0.0,0.0