id,formula,X,Y,Z,energy,formation,lat,spacegroup,tot_mag,X1_mag,X2_mag,Y_mag,Z_mag
488316,Nb2NiB,Nb,Ni,B,-7.99,0.118,5.98886824901445,Fm-3m,0.0,0.0,0.0,0.0,0.0
489134,Nb2NiBi,Nb,Ni,Bi,-7.122,0.327,6.612891851093123,Fm-3m,0.0,0.0,0.0,0.0,0.0
488463,Nb2GaNi,Nb,Ni,Ga,-7.249,-0.052,6.297454249840844,Fm-3m,0.0,0.0,0.0,0.0,0.0
487380,Nb2NiGe,Nb,Ni,Ge,-7.723,-0.128,6.289779346101351,Fm-3m,0.0,0.0,0.0,0.0,0.0
488150,Nb2InNi,Nb,Ni,In,-6.861,0.258,6.5154818334473275,Fm-3m,0.0,0.0,0.0,0.0,0.0
488838,MgNb2Ni,Nb,Ni,Mg,-6.481,0.343,6.373982921171515,Fm-3m,0.0,0.0,0.0,0.0,0.0
489309,Nb2NiPb,Nb,Ni,Pb,-6.977,0.388,6.587180503403646,Fm-3m,0.0,0.0,0.0,0.0,0.0
489281,Nb2NiSb,Nb,Ni,Sb,-7.439,0.029,6.496455661372521,Fm-3m,0.0,0.0,0.0,0.0,0.0
489185,Nb2SiNi,Nb,Ni,Si,-8.009,-0.214,6.221086716450238,Fm-3m,0.0,0.0,0.0,0.0,0.0
488861,Nb2NiSn,Nb,Ni,Sn,-7.334,0.083,6.521005026549204,Fm-3m,0.0,0.0,0.0,0.0,0.0
487401,Nb2ZnNi,Nb,Ni,Zn,-6.67,0.085,6.2605241355314,Fm-3m,0.0,0.0,0.0,0.0,0.0
737849,Nb2AlPd,Nb,Pd,Al,-7.363,-0.086,6.444867017695043,F-43m,0.876,0.167,0.485,0.069,0.003
488277,Nb2AsPd,Nb,Pd,As,-7.755,-0.251,6.4196013636921165,Fm-3m,0.0,0.0,0.0,0.0,0.0
488214,Nb2BPd,Nb,Pd,B,-7.758,0.253,6.193402625004475,Fm-3m,0.0,0.0,0.0,0.0,0.0
487374,Nb2BiPd,Nb,Pd,Bi,-7.195,0.156,6.706446605789637,Fm-3m,0.0,0.0,0.0,0.0,0.0
488989,Nb2GaPd,Nb,Pd,Ga,-7.184,-0.085,6.467131908757768,Fm-3m,0.0,0.0,0.0,0.0,0.0
488990,Nb2GePd,Nb,Pd,Ge,-7.676,-0.179,6.451793263775018,Fm-3m,0.0,0.0,0.0,0.0,0.0
737855,Nb2InPd,Nb,Pd,In,-6.928,0.093,6.631256697552695,F-43m,0.604,0.101,0.344,0.042,0.008
486902,MgNb2Pd,Nb,Pd,Mg,-6.443,0.284,6.541384862613165,Fm-3m,0.0,0.0,0.0,0.0,0.0
487263,Nb2PdPb,Nb,Pd,Pb,-7.037,0.23,6.693258236681014,Fm-3m,0.0,0.0,0.0,0.0,0.0
487021,Nb2SbPd,Nb,Pd,Sb,-7.475,-0.105,6.614964514099998,Fm-3m,0.0,0.0,0.0,0.0,0.0
488272,Nb2SiPd,Nb,Pd,Si,-7.923,-0.226,6.3735890764522,Fm-3m,0.0,0.0,0.0,0.0,0.0
487762,Nb2SnPd,Nb,Pd,Sn,-7.365,-0.046,6.623485354463295,Fm-3m,0.0,0.0,0.0,0.0,0.0
488008,Nb2ZnPd,Nb,Pd,Zn,-6.579,0.079,6.434707275136729,Fm-3m,0.0,0.0,0.0,0.0,0.0
745617,Nb2AlPt,Nb,Pt,Al,-7.759,-0.262,6.438054528534482,F-43m,0.732,0.103,0.436,0.076,0.003
488586,Nb2AsPt,Nb,Pt,As,-8.062,-0.338,6.454226743022957,Fm-3m,0.0,0.0,0.0,0.0,0.0
488884,Nb2BPt,Nb,Pt,B,-8.034,0.196,6.237031241755763,Fm-3m,0.0,0.0,0.0,0.0,0.0
489386,Nb2BiPt,Nb,Pt,Bi,-7.506,0.064,6.721472655331289,Fm-3m,0.0,0.0,0.0,0.0,0.0
488247,Nb2GaPt,Nb,Pt,Ga,-7.497,-0.178,6.48150958072978,Fm-3m,0.0,0.0,0.0,0.0,0.0
487658,Nb2GePt,Nb,Pt,Ge,-7.959,-0.242,6.477825821428847,Fm-3m,0.0,0.0,0.0,0.0,0.0
745623,Nb2InPt,Nb,Pt,In,-7.261,-0.02,6.620688068725673,F-43m,0.132,0.009,0.085,0.013,0.002
488912,MgNb2Pt,Nb,Pt,Mg,-6.85,0.097,6.533648001874142,Fm-3m,0.0,0.0,0.0,0.0,0.0
487208,Nb2PtPb,Nb,Pt,Pb,-7.333,0.154,6.698254539006258,Fm-3m,0.0,0.0,0.0,0.0,0.0
487869,Nb2SbPt,Nb,Pt,Sb,-7.766,-0.176,6.632590564093317,Fm-3m,0.0,0.0,0.0,0.0,0.0
488774,Nb2SiPt,Nb,Pt,Si,-8.196,-0.279,6.415846149838072,Fm-3m,0.0,0.0,0.0,0.0,0.0
488464,Nb2SnPt,Nb,Pt,Sn,-7.65,-0.111,6.639372854108242,Fm-3m,0.0,0.0,0.0,0.0,0.0
745619,Nb2ZnPt,Nb,Pt,Zn,-6.957,-0.079,6.42826044350999,F-43m,0.032,0.003,0.016,0.002,0.0
737877,Nb2AlRh,Nb,Rh,Al,-8.028,-0.227,6.393221990855781,F-43m,1.16,0.156,0.657,0.157,-0.001
489098,Nb2AsRh,Nb,Rh,As,-8.255,-0.228,6.403383627455352,Fm-3m,0.0,0.0,0.0,0.0,0.0
487608,Nb2BRh,Nb,Rh,B,-8.314,0.22,6.157461145238497,Fm-3m,0.0,0.0,0.0,0.0,0.0
737887,Nb2BiRh,Nb,Rh,Bi,-7.675,0.199,6.68491445162473,F-43m,0.012,0.001,0.0,0.0,0.0
737880,Nb2GaRh,Nb,Rh,Ga,-7.775,-0.153,6.401952529256532,F-43m,0.896,0.129,0.533,0.129,0.006
488876,Nb2GeRh,Nb,Rh,Ge,-8.175,-0.155,6.415327844213177,Fm-3m,0.0,0.0,0.0,0.0,0.0
737883,Nb2InRh,Nb,Rh,In,-7.542,0.003,6.5725211973819455,F-43m,1.232,0.162,0.711,0.189,0.011
489212,MgNb2Rh,Nb,Rh,Mg,-7.054,0.196,6.486837268317061,Fm-3m,0.0,0.0,0.0,0.0,0.0
737886,Nb2RhPb,Nb,Rh,Pb,-7.59,0.201,6.6548234175206264,F-43m,0.592,0.009,0.367,0.129,0.006
737885,Nb2SbRh,Nb,Rh,Sb,-7.962,-0.068,6.567578985763675,F-43m,0.024,0.002,0.002,-0.001,-0.001
489425,Nb2SiRh,Nb,Rh,Si,-8.437,-0.217,6.357531312493816,Fm-3m,0.0,0.0,0.0,0.0,0.0
737884,Nb2SnRh,Nb,Rh,Sn,-7.95,-0.108,6.578442057470142,F-43m,0.668,0.026,0.4,0.144,0.01
1121878,Nb2ZnRh,Nb,Rh,Zn,-7.212,-0.031,6.3730638744328925,F-43m,1.108,0.0,0.0,0.0,0.0
737808,Nb2AlRu,Nb,Ru,Al,-8.468,-0.184,6.377131928252636,F-43m,0.012,0.0,0.008,0.002,0.0
487428,Nb2AsRu,Nb,Ru,As,-8.563,-0.053,6.398567387673186,Fm-3m,0.0,0.0,0.0,0.0,0.0
488173,Nb2BRu,Nb,Ru,B,-8.716,0.301,6.1453398499357075,Fm-3m,0.0,0.0,0.0,0.0,0.0
737818,Nb2BiRu,Nb,Ru,Bi,-8.068,0.289,6.658915435700016,F-43m,0.012,-0.002,0.007,0.004,0.0
737811,Nb2GaRu,Nb,Ru,Ga,-8.214,-0.108,6.377525335528666,F-43m,0.012,0.0,0.008,0.002,0.0
737812,Nb2GeRu,Nb,Ru,Ge,-8.59,-0.086,6.3746392209003275,F-43m,0.016,0.0,0.009,0.004,0.0
737814,Nb2InRu,Nb,Ru,In,-7.944,0.083,6.556803916028231,F-43m,0.124,0.01,0.08,0.012,0.001
487184,MgNb2Ru,Nb,Ru,Mg,-7.527,0.206,6.467131908757768,Fm-3m,0.0,0.0,0.0,0.0,0.0
737817,Nb2RuPb,Nb,Ru,Pb,-7.994,0.279,6.634045079614528,F-43m,0.004,-0.001,0.003,0.001,0.0
737816,Nb2SbRu,Nb,Ru,Sb,-8.381,-0.004,6.544250339635977,F-43m,0.012,0.001,0.004,0.001,0.0
737809,Nb2SiRu,Nb,Ru,Si,-8.896,-0.192,6.297723205157315,F-43m,0.172,0.014,0.09,0.035,-0.001
737815,Nb2SnRu,Nb,Ru,Sn,-8.371,-0.045,6.561390742218205,F-43m,0.028,-0.001,0.013,0.007,0.0
748825,Nb2ZnRu,Nb,Ru,Zn,-7.631,0.033,6.356607502064448,F-43m,0.524,0.047,0.365,0.053,0.007
529852,AlNi2Ag,Ni,Ag,Al,-4.609,-0.184,5.910676827326817,Fm-3m,0.0,0.0,0.0,0.0,0.0
528794,Ni2AgAs,Ni,Ag,As,-4.586,0.066,5.994513503106348,Fm-3m,0.0,0.0,0.0,0.0,0.0
528129,Ni2AgB,Ni,Ag,B,-4.585,0.574,5.688228502263636,Fm-3m,0.0,0.0,0.0,0.0,0.0
528577,Ni2AgBi,Ni,Ag,Bi,-4.337,0.161,6.33980010448907,Fm-3m,0.0,0.0,0.0,0.0,0.0
527937,GaNi2Ag,Ni,Ag,Ga,-4.332,-0.085,5.955974038892078,Fm-3m,0.0,0.0,0.0,0.0,0.0
530081,Ni2AgGe,Ni,Ag,Ge,-4.652,-0.008,5.976052696415359,Fm-3m,0.0,0.0,0.0,0.0,0.0
529807,InNi2Ag,Ni,Ag,In,-4.167,0.002,6.143362084738567,Fm-3m,0.0,0.0,0.0,0.0,0.0
528272,MgNi2Ag,Ni,Ag,Mg,-3.866,0.008,6.035639734249168,Fm-3m,0.0,0.0,0.0,0.0,0.0
529340,Ni2AgPb,Ni,Ag,Pb,-4.228,0.187,6.265011383141239,Fm-3m,0.0,0.0,0.0,0.0,0.0
529687,Ni2AgSb,Ni,Ag,Sb,-4.528,-0.01,6.218191455941984,Fm-3m,0.0,0.0,0.0,0.0,0.0
529394,SiNi2Ag,Ni,Ag,Si,-4.914,-0.069,5.8453831642646055,Fm-3m,0.0,0.0,0.0,0.0,0.0
529067,Ni2AgSn,Ni,Ag,Sn,-4.548,-0.08,6.155350401502145,Fm-3m,0.0,0.0,0.0,0.0,0.0
529314,ZnNi2Ag,Ni,Ag,Zn,-3.768,0.038,5.900277684909995,Fm-3m,0.0,0.0,0.0,0.0,0.0
528111,AlNi2Au,Ni,Au,Al,-4.838,-0.301,5.938482533616231,Fm-3m,0.0,0.0,0.0,0.0,0.0
527944,Ni2AsAu,Ni,Au,As,-4.736,0.027,6.0330033158585925,Fm-3m,0.0,0.0,0.0,0.0,0.0
529914,Ni2BiAu,Ni,Au,Bi,-4.509,0.101,6.362409856386417,Fm-3m,0.0,0.0,0.0,0.0,0.0
528510,GaNi2Au,Ni,Au,Ga,-4.533,-0.175,5.984552857687094,Fm-3m,0.0,0.0,0.0,0.0,0.0
528446,Ni2GeAu,Ni,Au,Ge,-4.809,-0.053,6.001333037146727,Fm-3m,0.0,0.0,0.0,0.0,0.0
528086,InNi2Au,Ni,Au,In,-4.38,-0.1,6.164767209811161,Fm-3m,0.0,0.0,0.0,0.0,0.0
530204,MgNi2Au,Ni,Au,Mg,-4.149,-0.164,6.04762103949539,Fm-3m,0.0,0.0,0.0,0.0,0.0
529906,Ni2PbAu,Ni,Au,Pb,-4.402,0.124,6.2940903682502745,Fm-3m,0.0,0.0,0.0,0.0,0.0
529091,Ni2SbAu,Ni,Au,Sb,-4.673,-0.043,6.219432611954176,Fm-3m,0.0,0.0,0.0,0.0,0.0
529636,SiNi2Au,Ni,Au,Si,-5.071,-0.115,5.901349877861984,Fm-3m,0.0,0.0,0.0,0.0,0.0
529186,Ni2SnAu,Ni,Au,Sn,-4.724,-0.146,6.1814220150858254,Fm-3m,0.0,0.0,0.0,0.0,0.0
529062,ZnNi2Au,Ni,Au,Zn,-4.002,-0.085,5.937272419716635,Fm-3m,0.0,0.0,0.0,0.0,0.0
529266,AlCdNi2,Ni,Cd,Al,-4.169,-0.224,5.98082769123786,Fm-3m,0.0,0.0,0.0,0.0,0.0
529321,CdNi2As,Ni,Cd,As,-4.125,0.047,6.07606855720242,Fm-3m,0.0,0.0,0.0,0.0,0.0
529910,CdNi2B,Ni,Cd,B,-4.139,0.539,5.764668283394756,Fm-3m,0.0,0.0,0.0,0.0,0.0
529327,CdNi2Bi,Ni,Cd,Bi,-3.883,0.135,6.444224945181659,Fm-3m,0.0,0.0,0.0,0.0,0.0
528267,CdGaNi2,Ni,Cd,Ga,-3.893,-0.126,6.0202280241660135,Fm-3m,0.0,0.0,0.0,0.0,0.0
529217,CdNi2Ge,Ni,Cd,Ge,-4.185,-0.02,6.0615878813400785,Fm-3m,0.0,0.0,0.0,0.0,0.0
528383,CdInNi2,Ni,Cd,In,-3.742,-0.053,6.215845697359036,Fm-3m,0.0,0.0,0.0,0.0,0.0
530294,MgCdNi2,Ni,Cd,Mg,-3.474,-0.08,6.116821793770895,Fm-3m,0.0,0.0,0.0,0.0,0.0
529075,CdNi2Pb,Ni,Cd,Pb,-3.776,0.159,6.350133297468436,Fm-3m,0.0,0.0,0.0,0.0,0.0
529529,CdNi2Sb,Ni,Cd,Sb,-4.043,-0.005,6.28289641502357,Fm-3m,0.0,0.0,0.0,0.0,0.0
528603,CdSiNi2,Ni,Cd,Si,-4.436,-0.071,5.926510976188323,Fm-3m,0.0,0.0,0.0,0.0,0.0
529662,CdNi2Sn,Ni,Cd,Sn,-4.082,-0.095,6.222739941804823,Fm-3m,0.0,0.0,0.0,0.0,0.0
529798,ZnCdNi2,Ni,Cd,Zn,-3.365,-0.04,5.961831786842672,Fm-3m,0.0,0.0,0.0,0.0,0.0
715809,AlCoNi2,Ni,Co,Al,-5.775,-0.283,5.645546912784046,F-43m,1.196,0.332,0.055,0.895,-0.02
734053,CoNi2As,Ni,Co,As,-5.767,-0.048,5.660899938894424,F-43m,-0.02,-0.002,-0.001,-0.02,0.0
732435,CoNi2B,Ni,Co,B,-6.049,0.176,5.33661603461706,F-43m,0.996,0.032,0.32,0.705,-0.033
715819,CoNi2Bi,Ni,Co,Bi,-5.287,0.278,6.040905672416255,F-43m,-0.72,-0.024,-0.05,-0.678,0.012
732439,GaCoNi2,Ni,Co,Ga,-5.477,-0.163,5.685919900791584,F-43m,1.652,0.167,0.361,1.185,-0.046
734052,CoNi2Ge,Ni,Co,Ge,-5.863,-0.151,5.666552861997424,F-43m,-0.88,-0.202,-0.056,-0.633,0.023
734054,InCoNi2,Ni,Co,In,-5.144,0.092,5.92225626195902,F-43m,1.804,0.387,0.199,1.308,-0.045
529382,MgCoNi2,Ni,Co,Mg,-4.89,0.051,5.750671629171699,Fm-3m,2.144,0.282,0.282,1.654,-0.009
715818,CoNi2Pb,Ni,Co,Pb,-5.181,0.301,6.010057206753714,F-43m,0.008,0.005,0.0,0.001,0.0
715817,CoNi2Sb,Ni,Co,Sb,-5.621,-0.036,5.889688010431548,F-43m,-0.508,0.006,-0.045,-0.498,0.007
734049,CoSiNi2,Ni,Co,Si,-6.241,-0.329,5.539310648542416,F-43m,0.004,0.006,-0.003,0.001,0.0
734055,CoNi2Sn,Ni,Co,Sn,-5.589,-0.055,5.8929149847835935,F-43m,0.012,0.004,-0.001,0.004,0.0
747980,ZnCoNi2,Ni,Co,Zn,-4.881,-0.009,5.684104683611438,F-43m,2.232,0.542,0.282,1.517,-0.042
732537,CuNi2As,Ni,Cu,As,-4.874,0.001,5.786731460502759,F-43m,0.004,0.001,0.0,0.0,0.0
529188,CuNi2B,Ni,Cu,B,-5.214,0.168,5.378423274494754,Fm-3m,0.0,0.0,0.0,0.0,0.0
529156,CuNi2Bi,Ni,Cu,Bi,-4.581,0.141,6.132319723276734,Fm-3m,0.0,0.0,0.0,0.0,0.0
528401,CuNi2Ge,Ni,Cu,Ge,-5.073,-0.205,5.728979327574873,Fm-3m,0.0,0.0,0.0,0.0,0.0
530009,InCuNi2,Ni,Cu,In,-4.455,-0.063,5.938331296348972,Fm-3m,0.0,0.0,0.0,0.0,0.0
529255,MgCuNi2,Ni,Cu,Mg,-4.172,-0.074,5.764989247081474,Fm-3m,0.0,0.0,0.0,0.0,0.0
529316,CuNi2Pb,Ni,Cu,Pb,-4.486,0.152,6.06521453523948,Fm-3m,0.0,0.0,0.0,0.0,0.0
647160,CuNi2Sb,Ni,Cu,Sb,-4.801,-0.111,5.9099134304196985,Fm-3m,0.0,5.0,5.0,0.0,0.0
529614,CuSiNi2,Ni,Cu,Si,-5.414,-0.346,5.596085699985805,Fm-3m,0.0,0.0,0.0,0.0,0.0
17156,CuNi2Sn,Ni,Cu,Sn,-4.815,-0.174,5.908691584992879,Fm-3m,0.0,0.0,0.0,0.0,0.0
529646,ZnCuNi2,Ni,Cu,Zn,-4.147,-0.118,5.652232391128104,Fm-3m,0.0,0.0,0.0,0.0,0.0
527952,AlFeNi2,Ni,Fe,Al,-6.119,-0.322,5.669706942167613,Fm-3m,3.12,0.223,0.223,2.701,-0.02
734121,FeNi2As,Ni,Fe,As,-6.084,-0.061,5.730928623175304,F-43m,2.808,0.409,0.197,2.223,-0.015
715844,FeNi2B,Ni,Fe,B,-6.392,0.138,5.359551458715825,F-43m,2.456,0.447,0.112,1.972,-0.062
529714,FeNi2Bi,Ni,Fe,Bi,-5.61,0.26,6.148304113002172,Fm-3m,3.5,0.255,0.255,2.935,0.015
734120,FeNi2Ge,Ni,Fe,Ge,-6.163,-0.147,5.722634937747511,F-43m,2.76,0.454,0.175,2.197,-0.051
529531,InFeNi2,Ni,Fe,In,-5.536,0.004,5.938482533616231,Fm-3m,3.268,0.23,0.23,2.851,-0.041
528426,MgFeNi2,Ni,Fe,Mg,-5.274,-0.028,5.785775686852458,Fm-3m,3.564,0.414,0.414,2.816,-0.017
528153,FeNi2Pb,Ni,Fe,Pb,-5.54,0.246,6.056939422552682,Fm-3m,3.3,0.203,0.203,2.884,-0.016
528136,FeNi2Sb,Ni,Fe,Sb,-5.894,-0.004,5.957627390676086,Fm-3m,3.248,0.191,0.191,2.811,0.01
732473,FeSiNi2,Ni,Fe,Si,-6.526,-0.31,5.57780329165938,F-43m,2.472,0.168,0.434,1.939,-0.04
529520,FeNi2Sn,Ni,Fe,Sn,-5.931,-0.092,5.94331806441956,Fm-3m,3.212,0.185,0.185,2.83,-0.026
528186,ZnFeNi2,Ni,Fe,Zn,-5.266,-0.089,5.662397399489506,Fm-3m,3.572,0.405,0.405,2.802,-0.033
744210,AlNi2Ir,Ni,Ir,Al,-6.307,-0.374,5.842728442971066,F-43m,0.892,0.492,0.182,0.238,-0.004
744215,Ni2AsIr,Ni,Ir,As,-6.154,0.006,5.901043576775203,F-43m,0.0,-0.001,0.002,0.0,0.0
744209,Ni2BIr,Ni,Ir,B,-6.472,0.194,5.550239418289529,F-43m,0.244,0.108,0.057,0.057,-0.003
530013,Ni2BiIr,Ni,Ir,Bi,-5.694,0.312,6.220397613150726,Fm-3m,0.016,0.004,0.004,0.005,0.0
744213,GaNi2Ir,Ni,Ir,Ga,-5.948,-0.193,5.874581832315957,F-43m,0.836,0.471,0.17,0.212,-0.008
744214,Ni2GeIr,Ni,Ir,Ge,-6.3,-0.147,5.872108128591183,F-43m,0.012,0.011,0.0,0.001,0.0
530096,InNi2Ir,Ni,Ir,In,-5.638,0.039,6.054612515131006,Fm-3m,0.0,0.0,0.0,0.0,0.0
529137,MgNi2Ir,Ni,Ir,Mg,-5.428,-0.045,5.924688275480969,Fm-3m,0.012,0.006,0.006,0.005,0.0
528491,Ni2IrPb,Ni,Ir,Pb,-5.617,0.306,6.157742468420853,Fm-3m,0.0,0.0,0.0,0.0,0.0
744218,Ni2SbIr,Ni,Ir,Sb,-6.031,-0.005,6.0986649411877485,F-43m,0.004,0.0,0.003,0.0,0.0
744211,SiNi2Ir,Ni,Ir,Si,-6.7,-0.346,5.757115325109811,F-43m,0.008,0.007,0.0,0.0,0.0
744217,Ni2SnIr,Ni,Ir,Sn,-6.054,-0.078,6.099955208844269,F-43m,0.016,0.014,-0.005,0.0,0.0
744212,ZnNi2Ir,Ni,Ir,Zn,-5.327,-0.013,5.854266738972849,F-43m,1.7,0.716,0.479,0.553,-0.009
528308,LiNi2As,Ni,Li,As,-4.775,-0.355,5.666552861997424,Fm-3m,-0.0,0.0,0.0,0.0,0.0
528370,LiNi2B,Ni,Li,B,-5.041,-0.114,5.17502819964874,Fm-3m,0.0,0.0,0.0,0.0,0.0
530189,LiNi2Bi,Ni,Li,Bi,-4.337,-0.07,6.1453398499357075,Fm-3m,0.0,0.0,0.0,0.0,0.0
529702,LiInNi2,Ni,Li,In,-4.083,-0.146,5.988422117587813,Fm-3m,0.0,0.0,0.0,0.0,0.0
734031,LiMgNi2,Ni,Li,Mg,-3.706,-0.063,5.838663608641838,F-43m,-0.0,0.001,0.001,0.0,0.0
528761,LiNi2Pb,Ni,Li,Pb,-4.203,-0.019,6.10511082916764,Fm-3m,0.0,0.0,0.0,0.0,0.0
646161,LiSiNi2,Ni,Li,Si,-5.081,-0.514,5.478861006111021,Fm-3m,0.0,5.0,5.0,0.0,0.0
529274,LiZnNi2,Ni,Li,Zn,-3.724,-0.15,5.655402460436062,Fm-3m,0.0,0.0,0.0,0.0,0.0
529825,MgAlNi2,Ni,Mg,Al,-4.538,-0.433,5.885379869593553,Fm-3m,0.0,0.0,0.0,0.0,0.0
528949,MgNi2As,Ni,Mg,As,-4.568,-0.237,5.937574994435963,Fm-3m,0.0,0.0,0.0,0.0,0.0
528171,MgNi2B,Ni,Mg,B,-4.7,0.138,5.503799028176541,Fm-3m,0.0,0.0,0.0,0.0,0.0
529527,MgNi2Bi,Ni,Mg,Bi,-4.226,-0.047,6.345368313214774,Fm-3m,0.0,0.0,0.0,0.0,0.0
527818,MgNi2Ge,Ni,Mg,Ge,-4.633,-0.308,5.918299974481185,Fm-3m,0.0,0.0,0.0,0.0,0.0
527891,MgNi2Pb,Ni,Mg,Pb,-4.127,-0.032,6.277758135237281,Fm-3m,0.0,0.0,0.0,0.0,0.0
529464,MgNi2Sb,Ni,Mg,Sb,-4.458,-0.26,6.157039112259435,Fm-3m,0.0,0.0,0.0,0.0,0.0
527865,MgSiNi2,Ni,Mg,Si,-4.936,-0.411,5.800713348646091,Fm-3m,0.0,0.0,0.0,0.0,0.0
529639,MgZnNi2,Ni,Mg,Zn,-3.706,-0.221,5.873654437583945,Fm-3m,0.0,0.0,0.0,0.0,0.0
10500,MnAlNi2,Ni,Mn,Al,-6.328,-0.41,5.698922541803471,Fm-3m,3.976,0.361,0.361,3.26,-0.031
528301,MnNi2As,Ni,Mn,As,-6.326,-0.123,5.784022614561491,Fm-3m,4.096,0.23,0.23,3.495,0.005
715820,MnNi2B,Ni,Mn,B,-6.579,0.131,5.39771279452173,F-43m,2.608,0.268,0.109,2.282,-0.071
529537,MnNi2Bi,Ni,Mn,Bi,-5.927,0.122,6.19270734640852,Fm-3m,4.248,0.209,0.209,3.681,-0.011
647269,MnNi2Ge,Ni,Mn,Ge,-6.136,-0.237,5.688393330675848,Fm-3m,-0.012,5.0,5.0,5.0,0.0
646824,MnInNi2,Ni,Mn,In,-5.771,-0.107,5.962581948134386,Fm-3m,4.14,5.0,5.0,5.0,0.0
528685,MgMnNi2,Ni,Mn,Mg,-5.529,-0.104,5.8278486315579805,Fm-3m,4.324,0.5,0.5,3.34,-0.023
528269,MnNi2Pb,Ni,Mn,Pb,-5.843,0.123,6.114968168087593,Fm-3m,4.108,0.209,0.209,3.607,-0.038
13668,MnNi2Sb,Ni,Mn,Sb,-6.138,-0.136,5.960781243774784,Fm-3m,3.888,0.15,0.15,3.492,-0.021
528160,MnSiNi2,Ni,Mn,Si,-6.764,-0.368,5.642533275069344,Fm-3m,3.744,0.225,0.225,3.255,-0.036
647532,MnNi2Sn,Ni,Mn,Sn,-6.226,-0.208,6.0360789134498924,Fm-3m,4.044,0.215,0.215,3.548,-0.055
736217,AlNi2Pd,Ni,Pd,Al,-5.443,-0.429,5.855200284952471,F-43m,-0.004,0.0,0.0,0.0,0.0
529180,Ni2AsPd,Ni,Pd,As,-5.342,-0.101,5.901656147155829,Fm-3m,0.0,0.0,0.0,0.0,0.0
736216,Ni2BPd,Ni,Pd,B,-5.489,0.258,5.566294133260417,F-43m,-0.0,0.0,0.0,0.0,0.0
528278,Ni2BiPd,Ni,Pd,Bi,-5.069,0.019,6.234562433775803,Fm-3m,0.0,0.0,0.0,0.0,0.0
736220,GaNi2Pd,Ni,Pd,Ga,-5.127,-0.291,5.8909177508844435,F-43m,-0.0,0.0,0.0,0.0,0.0
529892,Ni2GePd,Ni,Pd,Ge,-5.436,-0.203,5.8929149847835935,Fm-3m,0.0,0.0,0.0,0.0,0.0
527845,InNi2Pd,Ni,Pd,In,-4.91,-0.152,6.069705571385575,Fm-3m,0.0,0.0,0.0,0.0,0.0
527804,MgNi2Pd,Ni,Pd,Mg,-4.601,-0.138,5.952815088589524,Fm-3m,-0.0,0.0,0.0,0.0,0.0
528166,Ni2PdPb,Ni,Pd,Pb,-4.971,0.033,6.178629161493221,Fm-3m,0.0,0.0,0.0,0.0,0.0
527921,Ni2SbPd,Ni,Pd,Sb,-5.305,-0.198,6.080543580208823,Fm-3m,0.0,0.0,0.0,0.0,0.0
736218,SiNi2Pd,Ni,Pd,Si,-5.756,-0.322,5.785616360540573,F-43m,0.012,0.001,0.004,0.0,0.0
528661,Ni2SnPd,Ni,Pd,Sn,-5.318,-0.262,6.07606855720242,Fm-3m,0.0,0.0,0.0,0.0,0.0
748692,ZnNi2Pd,Ni,Pd,Zn,-4.538,-0.144,5.8832234319597445,F-43m,0.424,0.292,0.129,0.022,-0.007
744627,AlNi2Pt,Ni,Pt,Al,-5.745,-0.511,5.8792144198617375,F-43m,0.008,0.008,-0.001,0.0,0.0
529486,Ni2AsPt,Ni,Pt,As,-5.522,-0.062,5.957627390676086,Fm-3m,0.0,0.0,0.0,0.0,0.0
744626,Ni2BPt,Ni,Pt,B,-5.767,0.2,5.597618034591411,F-43m,0.004,0.003,0.001,0.0,0.0
530284,Ni2BiPt,Ni,Pt,Bi,-5.263,0.044,6.264603717120884,Fm-3m,0.0,0.0,0.0,0.0,0.0
744630,GaNi2Pt,Ni,Pt,Ga,-5.382,-0.327,5.912965835698819,F-43m,0.004,0.005,0.0,0.0,0.0
744631,Ni2GePt,Ni,Pt,Ge,-5.657,-0.203,5.915253073214452,F-43m,0.004,0.0,0.003,0.0,0.0
528837,InNi2Pt,Ni,Pt,In,-5.161,-0.184,6.087603598763686,Fm-3m,0.0,0.0,0.0,0.0,0.0
529813,MgNi2Pt,Ni,Pt,Mg,-4.933,-0.25,5.966629561199222,Fm-3m,-0.0,0.0,0.0,0.0,0.0
528107,Ni2PtPb,Ni,Pt,Pb,-5.172,0.051,6.197987553583554,Fm-3m,0.0,0.0,0.0,0.0,0.0
528768,Ni2SbPt,Ni,Pt,Sb,-5.475,-0.148,6.112685238816242,Fm-3m,0.0,0.0,0.0,0.0,0.0
744628,SiNi2Pt,Ni,Pt,Si,-6.019,-0.365,5.814628156621214,F-43m,0.004,0.0,0.004,0.0,0.0
529361,Ni2SnPt,Ni,Pt,Sn,-5.533,-0.257,6.095795723412907,Fm-3m,0.0,0.0,0.0,0.0,0.0
736231,AlNi2Rh,Ni,Rh,Al,-5.962,-0.425,5.817623762763271,F-43m,0.708,0.428,0.126,0.184,-0.005
736236,Ni2AsRh,Ni,Rh,As,-5.873,-0.109,5.861726787488249,F-43m,0.0,-0.001,0.002,0.0,0.0
736230,Ni2BRh,Ni,Rh,B,-6.113,0.157,5.524147271876087,F-43m,0.136,0.072,0.026,0.038,-0.002
736241,Ni2BiRh,Ni,Rh,Bi,-5.473,0.137,6.217777627146941,F-43m,0.004,0.001,0.001,0.0,0.0
736234,GaNi2Rh,Ni,Rh,Ga,-5.641,-0.282,5.848347355018207,F-43m,0.728,0.455,0.128,0.176,-0.01
736235,Ni2GeRh,Ni,Rh,Ge,-6.004,-0.247,5.848191419880018,F-43m,-0.0,-0.001,0.001,0.0,0.0
736237,InNi2Rh,Ni,Rh,In,-5.34,-0.06,6.085876128864251,F-43m,0.792,0.522,0.131,0.177,-0.01
530109,MgNi2Rh,Ni,Rh,Mg,-5.045,-0.059,5.9181477039180574,Fm-3m,-0.08,-0.052,-0.052,-0.051,0.0
736240,Ni2RhPb,Ni,Rh,Pb,-5.386,0.141,6.178629161493221,F-43m,0.008,0.011,-0.003,0.0,0.0
736239,Ni2SbRh,Ni,Rh,Sb,-5.784,-0.154,6.065359511206053,F-43m,0.0,0.0,0.0,0.0,0.0
736232,SiNi2Rh,Ni,Rh,Si,-6.364,-0.407,5.738226697903729,F-43m,0.004,0.0,0.001,0.0,0.0
736238,Ni2SnRh,Ni,Rh,Sn,-5.79,-0.211,6.070574036924883,F-43m,0.016,0.011,-0.001,0.0,0.0
1121781,ZnNi2Rh,Ni,Rh,Zn,-5.008,-0.091,5.847723564564431,F-43m,1.6,0.706,0.464,0.493,-0.017
736189,AlNi2Ru,Ni,Ru,Al,-6.275,-0.254,5.808943791459718,F-43m,1.832,0.729,0.336,0.803,-0.008
736194,Ni2AsRu,Ni,Ru,As,-6.277,-0.031,5.841478327192236,F-43m,0.012,0.006,0.001,-0.001,0.0
736188,Ni2BRu,Ni,Ru,B,-6.545,0.208,5.510657023132948,F-43m,1.052,0.371,0.274,0.404,-0.006
736199,Ni2BiRu,Ni,Ru,Bi,-5.773,0.32,6.201872483335321,F-43m,0.008,0.013,-0.004,0.0,0.0
736192,GaNi2Ru,Ni,Ru,Ga,-5.966,-0.124,5.850217928424194,F-43m,1.82,0.707,0.346,0.814,-0.016
736193,Ni2GeRu,Ni,Ru,Ge,-6.356,-0.116,5.839289336179438,F-43m,0.844,0.379,0.154,0.332,-0.011
530260,InNi2Ru,Ni,Ru,In,-5.615,0.149,6.052283817780103,Fm-3m,1.268,0.255,0.255,0.77,-0.024
528082,MgNi2Ru,Ni,Ru,Mg,-5.389,0.08,5.9239284857530405,Fm-3m,2.0,0.477,0.477,1.089,-0.01
736198,Ni2RuPb,Ni,Ru,Pb,-5.649,0.361,6.178489452524005,F-43m,0.92,0.469,0.11,0.372,-0.011
736197,Ni2SbRu,Ni,Ru,Sb,-6.116,-0.003,6.056939422552682,F-43m,-0.0,0.003,0.0,0.0,0.0
736190,SiNi2Ru,Ni,Ru,Si,-6.738,-0.298,5.731415739932701,F-43m,0.796,0.369,0.147,0.303,-0.006
736196,Ni2SnRu,Ni,Ru,Sn,-6.07,-0.008,6.073033340833492,F-43m,0.94,0.462,0.127,0.381,-0.014
1121773,ZnNi2Ru,Ni,Ru,Zn,-5.33,0.07,5.842415964178997,F-43m,2.044,0.669,0.427,0.994,-0.005
362708,Sc2AlAg,Sc,Ag,Al,-5.165,-0.359,6.792379005331641,Fm-3m,0.0,0.0,0.0,0.0,0.0
361651,Sc2AgAs,Sc,Ag,As,-5.593,-0.56,6.731727443276012,Fm-3m,0.956,0.32,0.32,0.022,-0.013
360984,Sc2AgB,Sc,Ag,B,-5.522,0.017,6.4580653467249665,Fm-3m,0.0,0.0,0.0,0.0,0.0
361431,Sc2AgBi,Sc,Ag,Bi,-5.221,-0.342,7.034819708369084,Fm-3m,0.14,0.046,0.046,0.002,-0.003