id,formula,X,Y,Z,energy,formation,lat,spacegroup,tot_mag,X1_mag,X2_mag,Y_mag,Z_mag
747913,AlPdW2,W,Pd,Al,-8.657,0.054,6.290992418329328,F-43m,-0.008,-0.001,0.001,0.0,0.0
539396,AsPdW2,W,Pd,As,-8.578,0.359,6.269627894792599,Fm-3m,0.0,0.0,0.0,0.0,0.0
539333,BPdW2,W,Pd,B,-8.776,0.668,6.026695860493278,Fm-3m,0.0,0.0,0.0,0.0,0.0
747923,BiPdW2,W,Pd,Bi,-7.988,0.796,6.622512653525293,F-43m,0.008,0.006,-0.001,0.001,0.0
747916,GaPdW2,W,Pd,Ga,-8.319,0.213,6.313149657020907,F-43m,-0.008,-0.001,0.002,0.0,0.0
540115,GePdW2,W,Pd,Ge,-8.579,0.352,6.2749149472871535,Fm-3m,0.0,0.0,0.0,0.0,0.0
747919,InPdW2,W,Pd,In,-8.062,0.392,6.477063141040162,F-43m,0.0,0.0,0.0,0.0,0.0
538028,MgPdW2,W,Pd,Mg,-7.377,0.783,6.35383445842983,Fm-3m,0.0,0.0,0.0,0.0,0.0
747922,PdPbW2,W,Pd,Pb,-7.962,0.738,6.577825798421172,F-43m,0.024,0.017,-0.005,0.004,0.0
747921,SbPdW2,W,Pd,Sb,-8.29,0.514,6.4991083589565735,F-43m,0.032,0.012,0.0,0.004,0.001
539391,SiPdW2,W,Pd,Si,-8.924,0.207,6.196459997886954,Fm-3m,0.0,0.0,0.0,0.0,0.0
747920,SnPdW2,W,Pd,Sn,-8.387,0.366,6.485696357711074,F-43m,0.016,0.007,-0.002,0.002,0.0
747915,ZnPdW2,W,Pd,Zn,-7.803,0.288,6.295301779783669,F-43m,-0.004,0.0,0.001,0.0,0.0
741864,AlPtW2,W,Pt,Al,-8.971,-0.041,6.299336454848158,F-43m,-0.004,-0.001,0.001,-0.001,0.0
539706,AsPtW2,W,Pt,As,-8.922,0.236,6.295570919040524,Fm-3m,0.0,0.0,0.0,0.0,0.0
540009,BPtW2,W,Pt,B,-9.047,0.617,6.0769352051327585,Fm-3m,0.0,0.0,0.0,0.0,0.0
540509,BiPtW2,W,Pt,Bi,-8.257,0.747,6.571533349666106,Fm-3m,0.0,0.0,0.0,0.0,0.0
741867,GaPtW2,W,Pt,Ga,-8.584,0.168,6.322102595823537,F-43m,-0.004,-0.001,0.002,-0.001,0.0
538781,GePtW2,W,Pt,Ge,-8.895,0.254,6.309266618435942,Fm-3m,0.0,0.0,0.0,0.0,0.0
741870,InPtW2,W,Pt,In,-8.307,0.367,6.485823145378888,F-43m,-0.0,0.003,0.0,0.001,0.0
540038,MgPtW2,W,Pt,Mg,-7.782,0.598,6.354891141379369,Fm-3m,0.0,0.0,0.0,0.0,0.0
741873,PtPbW2,W,Pt,Pb,-8.127,0.793,6.597121487330226,F-43m,0.208,0.144,-0.014,0.032,0.005
538993,SbPtW2,W,Pt,Sb,-8.593,0.43,6.466111594873518,Fm-3m,0.0,0.0,0.0,0.0,0.0
539901,SiPtW2,W,Pt,Si,-9.217,0.133,6.243468376440826,Fm-3m,0.0,0.0,0.0,0.0,0.0
741871,SnPtW2,W,Pt,Sn,-8.569,0.404,6.502515791436286,F-43m,0.012,0.007,-0.001,0.002,0.0
741866,ZnPtW2,W,Pt,Zn,-8.133,0.178,6.299739638186102,F-43m,0.0,0.0,0.0,0.0,0.0
747969,AlRhW2,W,Rh,Al,-9.337,-0.104,6.247433612996145,F-43m,-0.02,0.0,0.0,-0.001,0.0
540220,AsRhW2,W,Rh,As,-9.176,0.285,6.250165328959907,Fm-3m,0.0,0.0,0.0,0.0,0.0
747968,BRhW2,W,Rh,B,-9.348,0.619,6.040905672416255,F-43m,-0.004,0.0,0.001,0.0,0.0
747979,BiRhW2,W,Rh,Bi,-8.573,0.734,6.5721507892884325,F-43m,0.288,0.181,-0.014,0.053,0.006
747972,GaRhW2,W,Rh,Ga,-8.988,0.068,6.262700573786176,F-43m,-0.0,0.0,0.0,0.0,0.0
747973,GeRhW2,W,Rh,Ge,-9.24,0.213,6.2689494223720565,F-43m,0.004,-0.001,0.0,0.0,0.0
747975,InRhW2,W,Rh,In,-8.681,0.297,6.42916377845663,F-43m,-0.0,0.0,0.0,0.0,0.0
1133356,MgRhW2,W,Rh,Mg,-8.495,0.188,6.307390336220281,F-43m,0.004,0.0,-0.001,0.0,0.0
747978,RhPbW2,W,Rh,Pb,-8.562,0.661,6.524013737986677,F-43m,0.016,0.012,-0.003,0.005,0.0
747977,SbRhW2,W,Rh,Sb,-8.899,0.428,6.447562326237465,F-43m,0.196,0.101,-0.005,0.058,0.003
747970,SiRhW2,W,Rh,Si,-9.607,0.047,6.190342230594175,F-43m,-0.004,0.0,0.002,0.0,0.0
747976,SnRhW2,W,Rh,Sn,-9.015,0.261,6.437668484609078,F-43m,-0.0,0.0,0.0,0.0,0.0
747971,ZnRhW2,W,Rh,Zn,-8.432,0.182,6.248936352328182,F-43m,0.0,0.0,-0.001,0.0,0.0
747843,AlRuW2,W,Ru,Al,-9.772,-0.055,6.239498096821847,F-43m,-0.008,0.002,-0.002,-0.002,0.0
747848,AsRuW2,W,Ru,As,-9.542,0.401,6.27396664518003,F-43m,0.384,0.204,0.033,0.057,0.023
747842,BRuW2,W,Ru,B,-9.84,0.61,6.0256678150736,F-43m,0.008,0.002,0.0,0.0,-0.001
747853,BiRuW2,W,Ru,Bi,-9.0,0.79,6.541509500779127,F-43m,0.424,0.26,0.006,0.056,0.018
747846,GaRuW2,W,Ru,Ga,-9.425,0.114,6.251393822471653,F-43m,-0.008,0.003,-0.002,-0.001,0.0
747847,GeRuW2,W,Ru,Ge,-9.728,0.209,6.244562737827177,F-43m,-0.008,0.0,0.001,0.001,0.0
747849,InRuW2,W,Ru,In,-9.081,0.379,6.419213097006538,F-43m,-0.004,0.0,0.0,0.0,0.0
1135114,MgRuW2,W,Ru,Mg,-8.885,0.281,6.300142769923184,F-43m,0.02,0.0,0.008,0.005,0.0
747852,RuPbW2,W,Ru,Pb,-8.987,0.72,6.501632725938182,F-43m,-0.0,0.0,0.0,0.0,0.0
747851,SbRuW2,W,Ru,Sb,-9.361,0.449,6.420118979559521,F-43m,0.044,0.02,-0.002,0.013,0.001
747844,SiRuW2,W,Ru,Si,-10.118,0.019,6.168974381805492,F-43m,-0.012,0.0,0.0,0.0,0.0
747850,SnRuW2,W,Ru,Sn,-9.464,0.295,6.417400564471839,F-43m,0.0,0.0,0.0,0.0,0.0
747845,ZnRuW2,W,Ru,Zn,-8.85,0.247,6.2356599231148095,F-43m,0.004,0.001,0.003,0.002,0.0
411272,Y2AlAg,Y,Ag,Al,-5.245,-0.371,7.236033357208219,Fm-3m,0.0,0.0,0.0,0.0,0.0
410216,Y2AgAs,Y,Ag,As,-5.731,-0.631,7.147978955079146,Fm-3m,0.044,0.013,0.013,0.001,0.0
409555,Y2AgB,Y,Ag,B,-5.543,0.064,6.91209807816935,Fm-3m,0.0,0.0,0.0,0.0,0.0
410003,Y2AgBi,Y,Ag,Bi,-5.402,-0.455,7.437260331706827,Fm-3m,0.008,0.002,0.002,0.0,0.0
409362,Y2GaAg,Y,Ag,Ga,-5.186,-0.49,7.230120729758962,Fm-3m,0.0,0.0,0.0,0.0,0.0
411503,Y2AgGe,Y,Ag,Ge,-5.647,-0.553,7.199897117871468,Fm-3m,0.0,0.0,0.0,0.0,0.0
409696,Y2MgAg,Y,Ag,Mg,-4.494,-0.171,7.366294237591155,Fm-3m,0.0,0.0,0.0,0.0,0.0
410756,Y2AgPb,Y,Ag,Pb,-5.29,-0.427,7.413852795003753,Fm-3m,0.78,0.21,0.21,0.023,-0.022
411103,Y2AgSb,Y,Ag,Sb,-5.539,-0.572,7.355959502477828,Fm-3m,0.032,0.009,0.009,0.001,0.0
410814,Y2SiAg,Y,Ag,Si,-5.765,-0.471,7.10809102078935,Fm-3m,0.0,0.0,0.0,0.0,0.0
410481,Y2AgSn,Y,Ag,Sn,-5.482,-0.566,7.3430248355932495,Fm-3m,0.012,0.003,0.003,0.0,0.0
410729,Y2ZnAg,Y,Ag,Zn,-4.597,-0.343,7.203804573621861,Fm-3m,0.0,0.0,0.0,0.0,0.0
409537,Y2AlAu,Y,Au,Al,-5.575,-0.589,7.253510784778217,Fm-3m,0.0,0.0,0.0,0.0,0.0
409369,Y2AsAu,Y,Au,As,-6.091,-0.879,7.147039379339223,Fm-3m,0.836,0.229,0.229,0.038,-0.009
411410,Y2BAu,Y,Au,B,-5.903,-0.185,6.916225903752895,Fm-3m,0.0,0.0,0.0,0.0,0.0
411336,Y2BiAu,Y,Au,Bi,-5.732,-0.673,7.434752533669241,Fm-3m,-0.38,-0.117,-0.117,-0.013,0.009
409512,Y2InAu,Y,Au,In,-5.373,-0.644,7.3374815832264035,Fm-3m,0.0,0.0,0.0,0.0,0.0
411628,Y2MgAu,Y,Au,Mg,-4.86,-0.426,7.300744278901976,Fm-3m,0.0,0.0,0.0,0.0,0.0
411328,Y2PbAu,Y,Au,Pb,-5.606,-0.631,7.388245277406983,Fm-3m,0.784,0.211,0.211,0.037,-0.021
410505,Y2SbAu,Y,Au,Sb,-5.869,-0.791,7.349744696270367,Fm-3m,0.86,0.227,0.227,0.032,-0.008
410683,Y2AlCd,Y,Cd,Al,-4.783,-0.389,7.309638859247328,Fm-3m,0.0,0.0,0.0,0.0,0.0
410736,Y2CdAs,Y,Cd,As,-5.184,-0.564,7.264543142190491,Fm-3m,0.0,0.0,0.0,0.0,0.0
411332,Y2CdB,Y,Cd,B,-4.968,0.159,7.020024296255496,Fm-3m,0.0,0.0,0.0,0.0,0.0
410743,Y2CdBi,Y,Cd,Bi,-4.911,-0.444,7.581394934529085,Fm-3m,0.0,0.0,0.0,0.0,0.0
409691,Y2CdGa,Y,Cd,Ga,-4.694,-0.479,7.287110550580328,Fm-3m,0.0,0.0,0.0,0.0,0.0
410632,Y2CdGe,Y,Cd,Ge,-5.108,-0.495,7.271408776131384,Fm-3m,0.0,0.0,0.0,0.0,0.0
411718,Y2MgCd,Y,Cd,Mg,-4.07,-0.228,7.455343523159716,Fm-3m,0.0,0.0,0.0,0.0,0.0
410489,Y2CdPb,Y,Cd,Pb,-4.796,-0.412,7.524271000706423,Fm-3m,0.0,0.0,0.0,0.0,0.0
410949,Y2CdSb,Y,Cd,Sb,-5.028,-0.541,7.4737213653199035,Fm-3m,0.0,0.0,0.0,0.0,0.0
410029,Y2CdSi,Y,Cd,Si,-5.22,-0.407,7.190728807669426,Fm-3m,0.0,0.0,0.0,0.0,0.0
411079,Y2CdSn,Y,Cd,Sn,-4.981,-0.545,7.4427522865320395,Fm-3m,0.0,0.0,0.0,0.0,0.0
411218,Y2ZnCd,Y,Cd,Zn,-4.107,-0.334,7.248641838334602,Fm-3m,0.0,0.0,0.0,0.0,0.0
410257,Y2AlCo,Y,Co,Al,-6.155,-0.214,6.987842844023907,Fm-3m,0.8,-0.107,-0.107,1.165,0.023
410582,Y2CoAs,Y,Co,As,-6.667,-0.499,6.921239601070134,Fm-3m,0.0,0.0,0.0,0.0,0.0
409283,Y2CoB,Y,Co,B,-6.564,0.11,6.592952379129486,Fm-3m,0.0,0.0,0.0,0.0,0.0
409819,Y2CoBi,Y,Co,Bi,-6.218,-0.203,7.272215645826738,Fm-3m,0.0,0.0,0.0,0.0,0.0
411629,Y2InCo,Y,Co,In,-5.883,-0.198,7.146621710813466,Fm-3m,0.02,-0.003,-0.003,0.034,0.0
410800,Y2MgCo,Y,Co,Mg,-5.399,-0.009,7.10809102078935,Fm-3m,0.0,0.0,0.0,0.0,0.0
411215,Y2CoPb,Y,Co,Pb,-6.083,-0.153,7.23083483591275,Fm-3m,-0.004,0.0,0.0,-0.019,-0.001
411588,Y2CoSb,Y,Co,Sb,-6.383,-0.349,7.1519433321002515,Fm-3m,0.0,0.0,0.0,0.0,0.0
409520,Y2ZnCo,Y,Co,Zn,-5.544,-0.223,6.887564242162395,Fm-3m,0.0,0.0,0.0,0.002,0.0
410006,Y2AlCu,Y,Cu,Al,-5.401,-0.303,7.103232013940805,Fm-3m,0.0,0.0,0.0,0.0,0.0
409919,Y2CuAs,Y,Cu,As,-5.926,-0.602,7.000925047817861,Fm-3m,0.0,0.0,0.0,0.0,0.0
410602,Y2CuB,Y,Cu,B,-5.813,0.018,6.717811078458029,Fm-3m,0.0,0.0,0.0,0.0,0.0
410571,Y2CuBi,Y,Cu,Bi,-5.528,-0.357,7.3579302623750635,Fm-3m,0.0,0.0,0.0,0.0,0.0
410869,Y2GaCu,Y,Cu,Ga,-5.352,-0.433,7.049553146400392,Fm-3m,0.0,0.0,0.0,0.0,0.0
409829,Y2CuGe,Y,Cu,Ge,-5.831,-0.514,7.02845559739739,Fm-3m,0.0,0.0,0.0,0.0,0.0
411432,Y2InCu,Y,Cu,In,-5.184,-0.343,7.272215645826738,Fm-3m,0.0,0.0,0.0,0.0,0.0
410673,Y2MgCu,Y,Cu,Mg,-4.622,-0.075,7.226037414441084,Fm-3m,0.0,0.0,0.0,0.0,0.0
410731,Y2CuPb,Y,Cu,Pb,-5.412,-0.325,7.33004443888096,Fm-3m,0.0,0.0,0.0,0.0,0.0
409590,Y2CuSb,Y,Cu,Sb,-5.684,-0.494,7.236135214352096,Fm-3m,-0.0,0.0,0.0,0.0,0.0
411031,Y2CuSi,Y,Cu,Si,-5.965,-0.448,6.965819767882616,Fm-3m,0.0,0.0,0.0,0.0,0.0
410766,Y2CuSn,Y,Cu,Sn,-5.622,-0.482,7.249453783660725,Fm-3m,0.0,0.0,0.0,0.0,0.0
411063,Y2ZnCu,Y,Cu,Zn,-4.766,-0.288,7.002230581656575,Fm-3m,0.0,0.0,0.0,0.0,0.0
409378,Y2AlFe,Y,Fe,Al,-6.298,-0.052,6.964830398524377,Fm-3m,-0.004,0.001,0.001,-0.013,0.0
411146,Y2FeAs,Y,Fe,As,-6.88,-0.408,6.962520776260677,Fm-3m,1.156,-0.298,-0.298,2.026,0.071
409951,Y2FeB,Y,Fe,B,-6.701,0.278,6.634408608854097,Fm-3m,1.008,-0.137,-0.137,1.4,-0.013
411130,Y2FeBi,Y,Fe,Bi,-6.489,-0.17,7.315523355951484,Fm-3m,1.128,-0.336,-0.336,2.27,0.059
410612,Y2GaFe,Y,Fe,Ga,-6.225,-0.158,6.928802101749272,Fm-3m,0.032,-0.006,-0.006,0.067,-0.001
410815,Y2FeGe,Y,Fe,Ge,-6.767,-0.302,6.996024954027274,Fm-3m,1.62,-0.201,-0.201,2.125,0.063
410951,Y2InFe,Y,Fe,In,-6.098,-0.108,7.201542879231215,Fm-3m,1.532,-0.211,-0.211,2.245,-0.027
409854,Y2MgFe,Y,Fe,Mg,-5.551,0.144,7.044827955501336,Fm-3m,-0.008,0.003,0.003,-0.016,0.0
409579,Y2FePb,Y,Fe,Pb,-6.353,-0.118,7.289219089630462,Fm-3m,1.676,-0.23,-0.23,2.353,0.05
409562,Y2FeSb,Y,Fe,Sb,-6.653,-0.315,7.198147671644523,Fm-3m,1.232,-0.301,-0.301,2.201,0.058
410493,Y2FeSi,Y,Fe,Si,-6.907,-0.242,6.92101692429239,Fm-3m,1.572,-0.196,-0.196,2.056,0.058
410939,Y2FeSn,Y,Fe,Sn,-6.569,-0.282,7.214169626693162,Fm-3m,1.64,-0.225,-0.225,2.3,0.06
409611,Y2ZnFe,Y,Fe,Zn,-5.675,-0.049,6.870206907075577,Fm-3m,0.012,-0.004,-0.004,0.028,-0.001
410512,Y2AlIr,Y,Ir,Al,-6.956,-0.573,7.043215645298212,Fm-3m,0.0,0.0,0.0,0.0,0.0
411614,Y2AsIr,Y,Ir,As,-7.439,-0.83,7.003644360836148,Fm-3m,0.0,0.0,0.0,0.0,0.0
411472,Y2BIr,Y,Ir,B,-7.285,-0.169,6.74347609261984,Fm-3m,0.0,0.0,0.0,0.0,0.0
411436,Y2BiIr,Y,Ir,Bi,-7.005,-0.549,7.294936126554195,Fm-3m,0.0,0.0,0.0,0.0,0.0
410175,Y2GaIr,Y,Ir,Ga,-6.887,-0.683,7.012440462634887,Fm-3m,0.0,0.0,0.0,0.0,0.0
409909,Y2GeIr,Y,Ir,Ge,-7.297,-0.695,7.023810076104706,Fm-3m,0.0,0.0,0.0,0.0,0.0
411517,Y2InIr,Y,Ir,In,-6.696,-0.57,7.172840062572765,Fm-3m,0.0,0.0,0.0,0.0,0.0
410552,Y2MgIr,Y,Ir,Mg,-6.281,-0.45,7.092857990395333,Fm-3m,0.0,0.0,0.0,0.0,0.0
409917,Y2IrPb,Y,Ir,Pb,-6.869,-0.497,7.256651841987387,Fm-3m,0.0,0.0,0.0,0.0,0.0
409869,Y2SbIr,Y,Ir,Sb,-7.149,-0.674,7.209863026029005,Fm-3m,0.0,0.0,0.0,0.0,0.0
410981,Y2SiIr,Y,Ir,Si,-7.418,-0.616,6.972956883292931,Fm-3m,0.0,0.0,0.0,0.0,0.0
410339,Y2SnIr,Y,Ir,Sn,-7.066,-0.642,7.202159845854857,Fm-3m,0.0,0.0,0.0,0.0,0.0
410321,Y2ZnIr,Y,Ir,Zn,-6.381,-0.619,6.973943948405436,Fm-3m,0.0,0.0,0.0,0.0,0.0
409734,LiY2As,Y,Li,As,-5.366,-0.497,7.059198629304629,Fm-3m,0.0,0.0,0.0,0.0,0.0
409797,LiY2B,Y,Li,B,-5.197,0.179,6.748164109766479,Fm-3m,0.0,0.0,0.0,0.0,0.0
411613,LiY2Bi,Y,Li,Bi,-5.055,-0.339,7.49419402509904,Fm-3m,0.0,0.0,0.0,0.0,0.0
409946,LiY2Ga,Y,Li,Ga,-4.814,-0.349,7.183914708405162,Fm-3m,0.0,0.0,0.0,0.0,0.0
410355,LiY2Ge,Y,Li,Ge,-5.31,-0.447,7.094553781497967,Fm-3m,0.0,0.0,0.0,0.0,0.0
411241,LiY2Mg,Y,Li,Mg,-4.082,0.01,7.492009267226619,Fm-3m,-0.0,0.0,0.0,0.0,0.0
410182,LiY2Pb,Y,Li,Pb,-4.945,-0.313,7.462054265870439,Fm-3m,0.0,0.0,0.0,0.0,0.0
410417,LiY2Sb,Y,Li,Sb,-5.209,-0.473,7.3292502522811525,Fm-3m,-0.0,0.0,0.0,0.0,0.0
411584,LiY2Si,Y,Li,Si,-5.457,-0.394,7.007882277374442,Fm-3m,0.0,0.0,0.0,0.0,0.0
409788,LiY2Sn,Y,Li,Sn,-5.164,-0.479,7.367571760330368,Fm-3m,0.0,0.0,0.0,0.0,0.0
410691,LiY2Zn,Y,Li,Zn,-4.166,-0.143,7.171699607525093,Fm-3m,0.0,0.0,0.0,0.0,0.0
410365,Y2MgAs,Y,Mg,As,-5.196,-0.415,7.302144862954652,Fm-3m,0.0,0.0,0.0,0.0,0.0
409597,Y2MgB,Y,Mg,B,-4.997,0.29,6.945425970894332,Fm-3m,0.0,0.0,0.0,0.0,0.0
410946,Y2MgBi,Y,Mg,Bi,-4.953,-0.326,7.613549237343162,Fm-3m,0.0,0.0,0.0,0.0,0.0
411557,Y2MgGa,Y,Mg,Ga,-4.743,-0.368,7.312931354981529,Fm-3m,0.0,0.0,0.0,0.0,0.0
409241,Y2MgGe,Y,Mg,Ge,-5.149,-0.375,7.282588139064661,Fm-3m,0.0,0.0,0.0,0.0,0.0
409314,Y2MgPb,Y,Mg,Pb,-4.846,-0.302,7.539032069507675,Fm-3m,0.0,0.0,0.0,0.0,0.0
410884,Y2MgSb,Y,Mg,Sb,-5.07,-0.423,7.515688640805147,Fm-3m,0.0,0.0,0.0,0.0,0.0
409289,Y2MgSi,Y,Mg,Si,-5.277,-0.303,7.196294389463835,Fm-3m,0.0,0.0,0.0,0.0,0.0
411173,Y2MgSn,Y,Mg,Sn,-5.046,-0.45,7.465787878434615,Fm-3m,0.0,0.0,0.0,0.0,0.0
411056,Y2MgZn,Y,Mg,Zn,-4.135,-0.2,7.327661362535051,Fm-3m,0.0,0.0,0.0,0.0,0.0
409896,Y2MnAl,Y,Mn,Al,-6.348,0.078,6.981721017429356,Fm-3m,0.028,-0.001,-0.001,0.04,0.0
409726,Y2MnAs,Y,Mn,As,-6.955,-0.304,7.039881196342245,Fm-3m,2.34,-0.311,-0.311,3.088,0.062
411236,Y2MnB,Y,Mn,B,-6.768,0.39,6.764404538264719,Fm-3m,3.248,-0.138,-0.138,3.282,0.087
410957,Y2MnBi,Y,Mn,Bi,-6.626,-0.128,7.413367607913351,Fm-3m,2.728,-0.299,-0.299,3.505,0.043
409348,Y2MnGa,Y,Mn,Ga,-6.266,-0.019,6.931578286877553,Fm-3m,-0.004,0.0,0.0,-0.004,0.0
410598,Y2MnGe,Y,Mn,Ge,-6.877,-0.232,7.066255266584382,Fm-3m,2.852,-0.246,-0.246,3.372,0.057
739491,Y2MnIn,Y,Mn,In,-6.097,0.072,7.023269500257044,F-43m,2.0,-0.36,-0.419,3.066,-0.053
410109,Y2MgMn,Y,Mn,Mg,-5.598,0.277,7.077346298183364,Fm-3m,-0.02,0.001,0.001,-0.031,0.0
409693,Y2MnPb,Y,Mn,Pb,-6.515,-0.1,7.381301709512533,Fm-3m,2.888,-0.278,-0.278,3.578,0.041
410450,Y2MnSb,Y,Mn,Sb,-6.771,-0.253,7.281682982473443,Fm-3m,2.66,-0.292,-0.291,3.381,0.047
409586,Y2MnSi,Y,Mn,Si,-7.012,-0.167,7.002883166057526,Fm-3m,2.824,-0.242,-0.242,3.338,0.058
410516,Y2MnSn,Y,Mn,Sn,-6.722,-0.255,7.301344595007046,Fm-3m,2.892,-0.268,-0.268,3.547,0.05
410935,Y2MnZn,Y,Mn,Zn,-5.705,0.1,6.897219351459563,Fm-3m,-0.008,0.0,0.0,-0.011,0.0
409257,Y2AlNi,Y,Ni,Al,-5.89,-0.329,7.0287794744356535,Fm-3m,0.0,0.0,0.0,0.0,0.0
409327,Y2NiAs,Y,Ni,As,-6.431,-0.644,6.944983699753879,Fm-3m,0.0,0.0,0.0,0.0,0.0
410633,Y2NiB,Y,Ni,B,-6.33,-0.036,6.633681510529588,Fm-3m,0.0,0.0,0.0,0.0,0.0
411455,Y2NiBi,Y,Ni,Bi,-5.991,-0.358,7.287411845154002,Fm-3m,0.0,0.0,0.0,0.0,0.0
410778,Y2GaNi,Y,Ni,Ga,-5.841,-0.459,6.979532046908886,Fm-3m,0.0,0.0,0.0,0.0,0.0
409708,Y2NiGe,Y,Ni,Ge,-6.333,-0.553,6.991008864462344,Fm-3m,0.0,0.0,0.0,0.0,0.0
410464,Y2InNi,Y,Ni,In,-5.63,-0.326,7.087341061500753,Fm-3m,0.0,0.0,0.0,0.0,0.0
411159,Y2MgNi,Y,Ni,Mg,-5.137,-0.127,7.111467285400737,Fm-3m,0.0,0.0,0.0,0.0,0.0
411630,Y2NiPb,Y,Ni,Pb,-5.883,-0.334,7.283493070707045,Fm-3m,0.0,0.0,0.0,0.0,0.0
411600,Y2NiSb,Y,Ni,Sb,-6.155,-0.502,7.1849479786648445,Fm-3m,0.0,0.0,0.0,0.0,0.0
411505,Y2SiNi,Y,Ni,Si,-6.469,-0.489,6.928135486187938,Fm-3m,0.0,0.0,0.0,0.0,0.0
411181,Y2NiSn,Y,Ni,Sn,-6.093,-0.491,7.18887169787411,Fm-3m,0.0,0.0,0.0,0.0,0.0
409729,Y2ZnNi,Y,Ni,Zn,-5.294,-0.353,6.932133257119066,Fm-3m,0.0,0.0,0.0,0.0,0.0
409583,Y2AlPd,Y,Pd,Al,-6.056,-0.593,7.1306091052227005,Fm-3m,0.0,0.0,0.0,0.0,0.0
410594,Y2AsPd,Y,Pd,As,-6.601,-0.912,7.055557879411289,Fm-3m,0.628,0.18,0.18,0.039,-0.021
410529,Y2BPd,Y,Pd,B,-6.42,-0.225,6.7975769913957835,Fm-3m,0.0,0.0,0.0,0.0,0.0
409702,Y2BiPd,Y,Pd,Bi,-6.214,-0.678,7.35379044621871,Fm-3m,0.908,0.237,0.237,0.049,-0.023
409269,Y2InPd,Y,Pd,In,-5.838,-0.632,7.265553608193563,Fm-3m,0.0,0.0,0.0,0.0,0.0
409227,Y2MgPd,Y,Pd,Mg,-5.328,-0.416,7.22665020594796,Fm-3m,0.0,0.0,0.0,0.0,0.0
409592,Y2PdPb,Y,Pd,Pb,-6.095,-0.643,7.3330211070005875,Fm-3m,0.0,0.0,0.0,0.0,0.0
409347,Y2SbPd,Y,Pd,Sb,-6.361,-0.805,7.2622180029797585,Fm-3m,0.772,0.209,0.209,0.046,-0.022
410328,Y2ZnPd,Y,Pd,Zn,-5.458,-0.615,7.0762813629754096,Fm-3m,0.0,0.0,0.0,0.0,0.0
410733,Y2AlPt,Y,Pt,Al,-6.42,-0.738,7.117999690574398,Fm-3m,0.0,0.0,0.0,0.0,0.0
410904,Y2AsPt,Y,Pt,As,-6.955,-1.046,7.056629078206999,Fm-3m,0.0,0.0,0.0,0.0,0.0
411204,Y2BPt,Y,Pt,B,-6.782,-0.366,6.815076123612244,Fm-3m,0.0,0.0,0.0,0.0,0.0
411709,Y2BiPt,Y,Pt,Bi,-6.538,-0.783,7.343717153919787,Fm-3m,0.0,0.0,0.0,0.0,0.0
410564,Y2GaPt,Y,Pt,Ga,-6.371,-0.867,7.0975194667420425,Fm-3m,0.0,0.0,0.0,0.0,0.0
409985,Y2GePt,Y,Pt,Ge,-6.836,-0.934,7.09582509301725,Fm-3m,0.0,0.0,0.0,0.0,0.0
410258,Y2InPt,Y,Pt,In,-6.188,-0.762,7.2311408382337214,Fm-3m,0.0,0.0,0.0,0.0,0.0
411233,Y2MgPt,Y,Pt,Mg,-5.738,-0.606,7.169210082164074,Fm-3m,0.0,0.0,0.0,0.0,0.0
409533,Y2PtPb,Y,Pt,Pb,-6.416,-0.744,7.3017447509081,Fm-3m,0.0,0.0,0.0,0.0,0.0
410189,Y2SbPt,Y,Pt,Sb,-6.683,-0.907,7.259688987883357,Fm-3m,0.0,0.0,0.0,0.0,0.0
411092,Y2SiPt,Y,Pt,Si,-6.949,-0.846,7.046761754103954,Fm-3m,0.0,0.0,0.0,0.0,0.0
410779,Y2SnPt,Y,Pt,Sn,-6.608,-0.884,7.267169769429857,Fm-3m,0.0,0.0,0.0,0.0,0.0
411032,Y2ZnPt,Y,Pt,Zn,-5.857,-0.794,7.056629078206999,Fm-3m,0.0,0.0,0.0,0.0,0.0
409287,Y2AlRh,Y,Rh,Al,-6.552,-0.566,7.060054730774904,Fm-3m,0.0,0.0,0.0,0.0,0.0
411420,Y2AsRh,Y,Rh,As,-7.092,-0.879,6.9922090189510735,Fm-3m,0.0,0.0,0.0,0.0,0.0
409935,Y2BRh,Y,Rh,B,-6.904,-0.185,6.7338452267976265,Fm-3m,0.0,0.0,0.0,0.0,0.0
411153,Y2BiRh,Y,Rh,Bi,-6.668,-0.609,7.303444924380933,Fm-3m,0.0,0.0,0.0,0.0,0.0
411191,Y2GaRh,Y,Rh,Ga,-6.49,-0.682,7.034065246313987,Fm-3m,0.0,0.0,0.0,0.0,0.0
411196,Y2GeRh,Y,Rh,Ge,-6.94,-0.735,7.026187621893882,Fm-3m,0.0,0.0,0.0,0.0,0.0
411021,Y2InRh,Y,Rh,In,-6.305,-0.575,7.189181282806144,Fm-3m,0.0,0.0,0.0,0.0,0.0
411530,Y2MgRh,Y,Rh,Mg,-5.837,-0.402,7.131972450282144,Fm-3m,0.0,0.0,0.0,0.0,0.0
409937,Y2RhPb,Y,Rh,Pb,-6.51,-0.535,7.258474434514607,Fm-3m,0.0,0.0,0.0,0.0,0.0
409651,Y2SbRh,Y,Rh,Sb,-6.82,-0.741,7.213144711974208,Fm-3m,0.0,0.0,0.0,0.0,0.0
411747,Y2SiRh,Y,Rh,Si,-7.07,-0.665,6.971750090749814,Fm-3m,0.0,0.0,0.0,0.0,0.0
409855,Y2SnRh,Y,Rh,Sn,-6.719,-0.691,7.208836886277305,Fm-3m,0.0,0.0,0.0,0.0,0.0
410399,Y2ZnRh,Y,Rh,Zn,-5.96,-0.593,6.991117986443825,Fm-3m,0.0,0.0,0.0,0.0,0.0
409756,Y2AsRu,Y,Ru,As,-7.268,-0.573,6.9708721609647455,Fm-3m,0.0,0.0,0.0,0.001,0.0
410487,Y2BRu,Y,Ru,B,-7.128,0.074,6.701581270792738,Fm-3m,0.0,0.0,0.0,0.0,0.0
410041,Y2BiRu,Y,Ru,Bi,-6.861,-0.319,7.275844345657564,Fm-3m,0.0,0.0,0.0,0.0,0.0
409725,Y2GaRu,Y,Ru,Ga,-6.736,-0.445,6.986859702401774,Fm-3m,0.0,0.0,0.0,0.0,0.0
410021,Y2GeRu,Y,Ru,Ge,-7.165,-0.476,6.980845593951646,Fm-3m,0.0,0.0,0.0,0.0,0.0
411686,Y2InRu,Y,Ru,In,-6.556,-0.343,7.166199596986792,Fm-3m,0.0,0.0,0.0,0.0,0.0
410986,Y2RuPb,Y,Ru,Pb,-6.738,-0.279,7.232160658973026,Fm-3m,0.0,0.0,0.0,0.0,0.0
410915,Y2SbRu,Y,Ru,Sb,-7.018,-0.456,7.178226401669341,Fm-3m,0.028,-0.001,-0.001,0.034,0.003
410479,Y2SiRu,Y,Ru,Si,-7.304,-0.415,6.93834286217966,Fm-3m,0.0,0.0,0.0,0.0,0.0
410710,Y2SnRu,Y,Ru,Sn,-6.955,-0.444,7.172943722322802,Fm-3m,0.0,0.0,0.0,0.0,0.0
736840,AlZn2Ag,Zn,Ag,Al,-2.188,0.087,6.363200266961216,F-43m,0.0,0.0,0.0,0.0,0.0
736844,Zn2AgAs,Zn,Ag,As,-2.35,0.151,6.5383921206364395,F-43m,0.0,0.0,0.0,0.0,0.0
482118,Zn2AgB,Zn,Ag,B,-2.27,0.738,6.07563514051237,Fm-3m,0.0,0.0,0.0,0.0,0.0
736849,Zn2AgBi,Zn,Ag,Bi,-2.15,0.198,6.941664869228537,F-43m,0.0,0.0,0.0,0.0,0.0
736842,Zn2GaAg,Zn,Ag,Ga,-2.014,0.082,6.454226743022957,F-43m,0.0,0.0,0.0,0.0,0.0
484068,Zn2AgGe,Zn,Ag,Ge,-2.319,0.176,6.453842631450128,Fm-3m,0.0,0.0,0.0,0.0,0.0
482259,MgZn2Ag,Zn,Ag,Mg,-1.788,-0.064,6.365833551735699,Fm-3m,0.0,0.0,0.0,0.0,0.0
736848,Zn2AgPb,Zn,Ag,Pb,-2.06,0.205,6.910646590007137,F-43m,0.0,0.0,0.0,0.0,0.0
736847,Zn2AgSb,Zn,Ag,Sb,-2.194,0.174,6.8146167705988985,F-43m,0.0,0.0,0.0,0.0,0.0
483378,Zn2SiAg,Zn,Ag,Si,-2.417,0.278,6.336082524517764,Fm-3m,0.0,0.0,0.0,0.0,0.0
736846,Zn2AgSn,Zn,Ag,Sn,-2.188,0.129,6.75962230771479,F-43m,0.0,0.0,0.0,0.0,0.0
743807,AlZn2Au,Zn,Au,Al,-2.439,-0.053,6.348942721858231,F-43m,0.0,0.0,0.0,0.0,0.0
481933,Zn2AsAu,Zn,Au,As,-2.541,0.071,6.451408862364207,Fm-3m,0.0,0.0,0.0,0.0,0.0
483974,Zn2BAu,Zn,Au,B,-2.458,0.661,6.129907769964778,Fm-3m,0.0,0.0,0.0,0.0,0.0
483900,Zn2BiAu,Zn,Au,Bi,-2.316,0.144,6.821959000707137,Fm-3m,0.0,0.0,0.0,0.0,0.0
482496,Zn2GaAu,Zn,Au,Ga,-2.231,-0.023,6.3971341335471985,Fm-3m,0.0,0.0,0.0,0.0,0.0
482433,Zn2GeAu,Zn,Au,Ge,-2.534,0.071,6.452177619385589,Fm-3m,0.0,0.0,0.0,0.0,0.0