id,formula,X,Y,Z,energy,formation,lat,spacegroup,tot_mag,X1_mag,X2_mag,Y_mag,Z_mag
743812,Zn2InAu,Zn,Au,In,-2.093,0.037,6.687300515201301,F-43m,0.0,0.0,0.0,0.0,0.0
1142315,MgZn2Au,Zn,Au,Mg,-2.083,-0.248,6.41351311466879,F-43m,0.0,0.0,0.0,0.0,0.0
483892,Zn2PbAu,Zn,Au,Pb,-2.25,0.125,6.772437450829906,Fm-3m,0.0,0.0,0.0,0.0,0.0
483075,Zn2SbAu,Zn,Au,Sb,-2.352,0.127,6.707395116742924,Fm-3m,0.0,0.0,0.0,0.0,0.0
483622,Zn2SiAu,Zn,Au,Si,-2.624,0.182,6.34920733280408,Fm-3m,0.0,0.0,0.0,0.0,0.0
743813,Zn2SnAu,Zn,Au,Sn,-2.376,0.052,6.7624224829761275,F-43m,0.0,0.0,0.0,0.0,0.0
736853,AlZn2Cd,Zn,Cd,Al,-1.605,0.19,6.563496054404841,F-43m,0.0,0.0,0.0,0.0,0.0
736857,Zn2CdAs,Zn,Cd,As,-1.826,0.195,6.70632802305412,F-43m,0.0,0.0,0.0,0.0,0.0
736852,Zn2CdB,Zn,Cd,B,-1.692,0.836,6.2793816584583615,F-43m,0.0,0.0,0.0,0.0,0.0
736862,Zn2CdBi,Zn,Cd,Bi,-1.669,0.199,7.115367099280736,F-43m,0.0,0.0,0.0,0.0,0.0
736855,Zn2CdGa,Zn,Cd,Ga,-1.481,0.135,6.642637941552575,F-43m,0.0,0.0,0.0,0.0,0.0
483198,Zn2CdGe,Zn,Cd,Ge,-1.807,0.207,6.576222984251527,Fm-3m,0.0,0.0,0.0,0.0,0.0
736858,Zn2CdIn,Zn,Cd,In,-1.379,0.159,6.877318226478563,F-43m,0.0,0.0,0.0,0.0,0.0
484281,MgZn2Cd,Zn,Cd,Mg,-1.213,0.031,6.476681733481805,Fm-3m,0.0,0.0,0.0,0.0,0.0
736861,Zn2CdPb,Zn,Cd,Pb,-1.565,0.219,7.056093519464319,F-43m,0.0,0.0,0.0,0.0,0.0
736860,Zn2CdSb,Zn,Cd,Sb,-1.697,0.191,6.9932997110850295,F-43m,0.0,0.0,0.0,0.0,0.0
736854,Zn2CdSi,Zn,Cd,Si,-1.88,0.335,6.553825242629777,F-43m,0.0,0.0,0.0,0.0,0.0
736859,Zn2CdSn,Zn,Cd,Sn,-1.68,0.156,6.941000722183801,F-43m,0.0,0.0,0.0,0.0,0.0
735485,AlZn2Co,Zn,Co,Al,-3.425,-0.083,5.915862704577443,F-43m,0.0,0.0,0.0,0.0,0.0
734711,Zn2CoAs,Zn,Co,As,-3.361,0.208,6.074189971422741,F-43m,0.0,0.0,0.0,0.0,0.0
715939,Zn2CoB,Zn,Co,B,-3.608,0.467,5.584138791250937,F-43m,0.032,0.0,0.0,0.025,0.0
732566,Zn2CoBi,Zn,Co,Bi,-2.999,0.416,6.504659381121208,F-43m,0.0,0.0,0.0,0.0,0.0
734709,Zn2GaCo,Zn,Co,Ga,-3.153,0.01,5.947844239395955,F-43m,0.024,0.0,0.0,0.021,0.0
734710,Zn2CoGe,Zn,Co,Ge,-3.408,0.154,6.02008086630665,F-43m,0.096,-0.001,0.003,0.078,0.003
734712,Zn2InCo,Zn,Co,In,-2.922,0.163,6.208659422637013,F-43m,0.0,0.0,0.0,0.001,0.0
730182,MgZn2Co,Zn,Co,Mg,-2.804,-0.013,6.035932527484043,Fm-3m,0.0,0.0,0.0,0.002,0.0
734715,Zn2CoPb,Zn,Co,Pb,-2.918,0.413,6.440498398987614,F-43m,0.0,0.0,0.0,0.002,0.0
732564,Zn2CoSb,Zn,Co,Sb,-3.151,0.284,6.32383679859759,F-43m,0.0,0.0,0.0,0.0,0.0
734708,Zn2CoSi,Zn,Co,Si,-3.678,0.084,5.8491269060064885,F-43m,0.0,0.0,0.0,0.0,0.0
734713,Zn2CoSn,Zn,Co,Sn,-3.195,0.189,6.2438788069164,F-43m,0.0,0.0,0.0,0.0,0.0
732652,AlZn2Cu,Zn,Cu,Al,-2.459,0.039,6.091343090645081,F-43m,0.0,0.0,0.0,0.0,0.0
734826,Zn2CuAs,Zn,Cu,As,-2.557,0.168,6.290722887152787,F-43m,0.0,0.0,0.0,0.0,0.0
483169,Zn2CuB,Zn,Cu,B,-2.632,0.599,5.754056368993306,Fm-3m,0.0,0.0,0.0,0.0,0.0
734831,Zn2CuBi,Zn,Cu,Bi,-2.299,0.273,6.713198901459208,F-43m,0.0,0.0,0.0,0.0,0.0
732655,Zn2GaCu,Zn,Cu,Ga,-2.247,0.073,6.159148698908529,F-43m,0.0,0.0,0.0,0.0,0.0
734825,Zn2CuGe,Zn,Cu,Ge,-2.537,0.181,6.260388057888052,F-43m,0.0,0.0,0.0,0.0,0.0
734827,Zn2InCu,Zn,Cu,In,-2.089,0.153,6.400260406071003,F-43m,0.0,0.0,0.0,0.0,0.0
710945,MgZn2Cu,Zn,Cu,Mg,-2.013,-0.065,6.154364892169172,F-43m,0.0,0.0,0.0,0.0,0.0
734830,Zn2CuPb,Zn,Cu,Pb,-2.205,0.283,6.65385985804614,F-43m,0.0,0.0,0.0,0.0,0.0
734829,Zn2CuSb,Zn,Cu,Sb,-2.368,0.223,6.571780339437623,F-43m,0.0,0.0,0.0,0.0,0.0
734823,Zn2CuSi,Zn,Cu,Si,-2.68,0.238,6.10511082916764,F-43m,0.0,0.0,0.0,0.0,0.0
734828,Zn2CuSn,Zn,Cu,Sn,-2.374,0.167,6.52125585855355,F-43m,0.0,0.0,0.0,0.0,0.0
734770,AlZn2Fe,Zn,Fe,Al,-3.599,0.048,5.928029037467879,F-43m,1.46,-0.014,-0.02,1.525,-0.027
734774,Zn2FeAs,Zn,Fe,As,-3.559,0.314,6.076213015692696,F-43m,2.26,0.001,0.003,2.206,0.011
732603,Zn2FeB,Zn,Fe,B,-3.819,0.561,5.587386576880709,F-43m,1.448,-0.012,-0.006,1.478,-0.026
715998,Zn2FeBi,Zn,Fe,Bi,-3.242,0.478,6.669123538900042,F-43m,2.732,-0.006,0.014,2.646,-0.009
734772,Zn2GaFe,Zn,Fe,Ga,-3.341,0.127,5.955372592417172,F-43m,1.712,-0.024,-0.016,1.751,-0.041
715992,Zn2FeGe,Zn,Fe,Ge,-3.61,0.256,6.061442724897548,F-43m,1.584,-0.026,-0.015,1.663,-0.026
734775,Zn2InFe,Zn,Fe,In,-3.113,0.277,6.21929473019272,F-43m,1.936,-0.034,-0.013,1.98,-0.044
701923,MgZn2Fe,Zn,Fe,Mg,-2.984,0.111,6.044119231509476,Fm-3m,2.112,-0.037,-0.037,2.219,-0.013
734778,Zn2FePb,Zn,Fe,Pb,-3.146,0.49,6.600306077020546,F-43m,2.508,-0.022,0.008,2.522,-0.029
732612,Zn2FeSb,Zn,Fe,Sb,-3.332,0.408,6.313417276760822,F-43m,1.772,0.0,-0.017,1.849,-0.019
734771,Zn2FeSi,Zn,Fe,Si,-3.874,0.192,5.850062092992768,F-43m,1.06,-0.003,-0.013,1.091,-0.015
734776,Zn2FeSn,Zn,Fe,Sn,-3.371,0.317,6.237579600404778,F-43m,1.488,-0.022,-0.007,1.54,-0.028
744224,AlZn2Ir,Zn,Ir,Al,-4.057,-0.274,6.099955208844269,F-43m,-0.0,0.0,0.0,0.0,0.0
744228,Zn2AsIr,Zn,Ir,As,-3.892,0.117,6.230718174969228,F-43m,-0.0,0.0,0.0,0.0,0.0
744223,Zn2BIr,Zn,Ir,B,-4.053,0.463,5.816993365211307,F-43m,0.0,0.0,0.0,0.0,0.0
484000,Zn2BiIr,Zn,Ir,Bi,-3.564,0.292,6.590865846291406,Fm-3m,0.0,0.0,0.0,0.0,0.0
744226,Zn2GaIr,Zn,Ir,Ga,-3.711,-0.106,6.133879388475917,F-43m,0.0,0.0,0.0,0.0,0.0
744227,Zn2GeIr,Zn,Ir,Ge,-3.956,0.046,6.207413954314202,F-43m,0.0,0.0,0.0,0.0,0.0
744229,Zn2InIr,Zn,Ir,In,-3.498,0.029,6.358454854524105,F-43m,-0.0,0.0,0.0,0.0,0.0
744232,Zn2IrPb,Zn,Ir,Pb,-3.48,0.293,6.586319996469831,F-43m,-0.004,0.0,0.0,0.001,0.0
744231,Zn2SbIr,Zn,Ir,Sb,-3.721,0.155,6.460621882895858,F-43m,-0.004,0.0,0.0,0.0,0.0
744230,Zn2SnIr,Zn,Ir,Sn,-3.763,0.063,6.422447218740787,F-43m,0.004,0.0,0.0,0.0,0.0
484183,LiAlZn2,Zn,Li,Al,-2.177,-0.134,6.148727345887999,Fm-3m,0.0,0.0,0.0,0.0,0.0
734748,LiZn2As,Zn,Li,As,-2.4,-0.13,6.369647949379713,F-43m,0.0,0.0,0.0,0.0,0.0
482357,LiZn2B,Zn,Li,B,-2.481,0.296,5.626574374124124,Fm-3m,0.0,0.0,0.0,0.0,0.0
734753,LiZn2Bi,Zn,Li,Bi,-2.162,-0.045,6.817027683434939,F-43m,0.0,0.0,0.0,0.0,0.0
715980,LiZn2Ge,Zn,Li,Ge,-2.334,-0.071,6.297050773785804,F-43m,0.0,0.0,0.0,0.0,0.0
734691,LiMgZn2,Zn,Li,Mg,-1.655,-0.162,6.253576619523088,F-43m,0.0,0.0,0.0,0.0,0.0
734752,LiZn2Pb,Zn,Li,Pb,-2.042,-0.008,6.710239041237498,F-43m,0.0,0.0,0.0,0.0,0.0
734751,LiZn2Sb,Zn,Li,Sb,-2.216,-0.079,6.684795103726904,F-43m,0.0,0.0,0.0,0.0,0.0
732599,LiZn2Sn,Zn,Li,Sn,-2.181,-0.095,6.5647338426992645,F-43m,0.0,0.0,0.0,0.0,0.0
483810,MgAlZn2,Zn,Mg,Al,-1.943,0.012,6.396482442039506,Fm-3m,0.0,0.0,0.0,0.0,0.0
734698,MgZn2As,Zn,Mg,As,-2.168,0.014,6.640340622193388,F-43m,0.0,0.0,0.0,0.0,0.0
734693,MgZn2B,Zn,Mg,B,-2.123,0.566,6.033442878943271,F-43m,0.0,0.0,0.0,0.0,0.0
734703,MgZn2Bi,Zn,Mg,Bi,-1.93,0.098,7.044827955501336,F-43m,0.0,0.0,0.0,0.0,0.0
734696,MgZn2Ga,Zn,Mg,Ga,-1.768,0.009,6.502894174666202,F-43m,0.0,0.0,0.0,0.0,0.0
734697,MgZn2Ge,Zn,Mg,Ge,-2.113,0.062,6.566960686100281,F-43m,0.0,0.0,0.0,0.0,0.0
483651,MgZn2In,Zn,Mg,In,-1.657,0.041,6.689088946104707,Fm-3m,0.0,0.0,0.0,0.0,0.0
481877,MgZn2Pb,Zn,Mg,Pb,-1.825,0.12,6.9147761482080075,Fm-3m,0.0,0.0,0.0,0.0,0.0
734701,MgZn2Sb,Zn,Mg,Sb,-1.984,0.064,6.9076300109397,F-43m,0.0,0.0,0.0,0.0,0.0
734695,MgZn2Si,Zn,Mg,Si,-2.209,0.166,6.422447218740787,F-43m,0.0,0.0,0.0,0.0,0.0
483741,MgZn2Sn,Zn,Mg,Sn,-1.968,0.029,6.775343228663766,Fm-3m,0.0,0.0,0.0,0.0,0.0
734732,MnAlZn2,Zn,Mn,Al,-3.772,0.054,6.0746235943519284,F-43m,2.984,-0.028,-0.022,2.94,-0.046
715969,MnZn2As,Zn,Mn,As,-3.84,0.212,6.324770206256696,F-43m,3.648,-0.009,-0.017,3.496,-0.015
734731,MnZn2B,Zn,Mn,B,-4.016,0.543,5.743728511931571,F-43m,3.136,-0.014,-0.012,3.038,-0.035
734741,MnZn2Bi,Zn,Mn,Bi,-3.523,0.376,6.794343623783871,F-43m,3.952,-0.014,0.002,3.746,-0.037
715967,MnZn2Ga,Zn,Mn,Ga,-3.56,0.088,6.12905603898675,F-43m,3.224,-0.04,-0.016,3.163,-0.051
732584,MnZn2Ge,Zn,Mn,Ge,-3.821,0.224,6.264060079879718,F-43m,3.304,-0.014,-0.037,3.266,-0.046
734737,MnZn2In,Zn,Mn,In,-3.353,0.217,6.381849615882819,F-43m,3.332,-0.051,-0.014,3.283,-0.061
730206,MgMnZn2,Zn,Mn,Mg,-3.278,-0.002,6.215293496787805,Fm-3m,3.372,-0.05,-0.05,3.392,-0.023
734740,MnZn2Pb,Zn,Mn,Pb,-3.429,0.387,6.728666068168224,F-43m,4.064,-0.007,0.025,3.789,-0.017
734739,MnZn2Sb,Zn,Mn,Sb,-3.62,0.299,6.610207651153878,F-43m,3.736,-0.009,0.005,3.568,-0.029
732581,MnZn2Si,Zn,Mn,Si,-4.04,0.206,5.970671690102152,F-43m,2.364,-0.027,-0.021,2.389,-0.053
732587,MnZn2Sn,Zn,Mn,Sn,-3.618,0.251,6.53814260177951,F-43m,3.632,0.014,-0.024,3.477,-0.04
734681,AlZn2Ni,Zn,Ni,Al,-3.139,-0.178,5.944223850925152,F-43m,0.0,0.0,0.0,0.0,0.0
734685,Zn2NiAs,Zn,Ni,As,-3.075,0.112,6.153801602241566,F-43m,-0.0,0.0,0.0,-0.001,0.0
734680,Zn2NiB,Zn,Ni,B,-3.295,0.4,5.618645334008388,F-43m,0.0,0.0,0.0,0.001,0.0
734690,Zn2NiBi,Zn,Ni,Bi,-2.773,0.261,6.580413310943676,F-43m,-0.004,0.0,0.0,-0.004,0.0
734683,Zn2GaNi,Zn,Ni,Ga,-2.875,-0.093,5.983957142686375,F-43m,-0.0,0.0,0.0,0.0,0.0
734684,Zn2NiGe,Zn,Ni,Ge,-3.111,0.07,6.0998118727253905,F-43m,0.0,0.0,0.0,0.0,0.0
734686,Zn2InNi,Zn,Ni,In,-2.676,0.029,6.239635087141711,F-43m,0.0,0.0,0.0,0.0,0.0
730050,MgZn2Ni,Zn,Ni,Mg,-2.562,-0.152,6.058538134892026,Fm-3m,0.004,0.0,0.0,0.004,0.0
734689,Zn2NiPb,Zn,Ni,Pb,-2.689,0.262,6.513093920829702,F-43m,-0.004,0.0,0.0,-0.003,0.0
715924,Zn2NiSb,Zn,Ni,Sb,-2.877,0.177,6.416105271249898,F-43m,-0.0,0.0,0.0,0.0,0.0
734682,Zn2SiNi,Zn,Ni,Si,-3.32,0.06,5.934850710963637,F-43m,0.0,0.0,0.0,0.0,0.0
715923,Zn2NiSn,Zn,Ni,Sn,-2.912,0.091,6.343513329680695,F-43m,-0.004,0.0,0.0,-0.001,0.0
736775,AlZn2Pd,Zn,Pd,Al,-3.196,-0.332,6.155350401502145,F-43m,0.0,0.0,0.0,0.0,0.0
483161,Zn2AsPd,Zn,Pd,As,-3.165,-0.075,6.3021576551731044,Fm-3m,0.0,0.0,0.0,0.0,0.0
736774,Zn2BPd,Zn,Pd,B,-3.229,0.367,5.865914733747962,F-43m,0.0,0.0,0.0,0.0,0.0
736784,Zn2BiPd,Zn,Pd,Bi,-2.913,0.024,6.734080453864111,F-43m,0.0,0.0,0.0,0.0,0.0
736777,Zn2GaPd,Zn,Pd,Ga,-2.926,-0.241,6.204644456119695,F-43m,0.0,0.0,0.0,0.0,0.0
483877,Zn2GePd,Zn,Pd,Ge,-3.176,-0.093,6.300411495755578,Fm-3m,0.0,0.0,0.0,0.0,0.0
736780,Zn2InPd,Zn,Pd,In,-2.781,-0.174,6.435093674421579,F-43m,0.0,0.0,0.0,0.0,0.0
736783,Zn2PdPb,Zn,Pd,Pb,-2.835,0.019,6.706802328837341,F-43m,0.0,0.0,0.0,0.0,0.0
736782,Zn2SbPd,Zn,Pd,Sb,-2.988,-0.031,6.606421665343023,F-43m,0.0,0.0,0.0,0.0,0.0
736776,Zn2SiPd,Zn,Pd,Si,-3.34,-0.056,6.175414255347244,F-43m,0.0,0.0,0.0,0.0,0.0
736781,Zn2SnPd,Zn,Pd,Sn,-3.021,-0.115,6.546117777912099,F-43m,0.0,0.0,0.0,0.0,0.0
744641,AlZn2Pt,Zn,Pt,Al,-3.469,-0.385,6.162099694629881,F-43m,0.0,0.0,0.0,0.0,0.0
483471,Zn2AsPt,Zn,Pt,As,-3.369,-0.059,6.319299179887056,Fm-3m,0.0,0.0,0.0,0.0,0.0
744640,Zn2BPt,Zn,Pt,B,-3.449,0.367,5.89598501137946,F-43m,0.0,0.0,0.0,0.0,0.0
484271,Zn2BiPt,Zn,Pt,Bi,-3.107,0.049,6.65385985804614,Fm-3m,0.0,0.0,0.0,0.0,0.0
744643,Zn2GaPt,Zn,Pt,Ga,-3.15,-0.245,6.214741198078114,F-43m,-0.0,0.0,0.0,0.0,0.0
482546,Zn2GePt,Zn,Pt,Ge,-3.391,-0.088,6.318364154946667,Fm-3m,0.0,0.0,0.0,0.0,0.0
744646,Zn2InPt,Zn,Pt,In,-2.983,-0.156,6.423610705581231,F-43m,-0.0,0.0,0.0,0.0,0.0
482096,Zn2PtPb,Zn,Pt,Pb,-3.049,0.024,6.626037336083115,Fm-3m,0.0,0.0,0.0,0.0,0.0
744648,Zn2SbPt,Zn,Pt,Sb,-3.17,0.006,6.584106231249079,F-43m,-0.0,0.0,0.0,0.0,0.0
744642,Zn2SiPt,Zn,Pt,Si,-3.582,-0.079,6.162099694629881,F-43m,-0.0,0.0,0.0,0.0,0.0
744647,Zn2SnPt,Zn,Pt,Sn,-3.227,-0.101,6.54387672406428,F-43m,-0.0,0.0,0.0,0.0,0.0
736788,AlZn2Rh,Zn,Rh,Al,-3.744,-0.358,6.082562401001807,F-43m,-0.004,0.0,0.0,0.001,0.0
736792,Zn2AsRh,Zn,Rh,As,-3.645,-0.032,6.221362315029276,F-43m,-0.004,0.0,0.0,0.0,0.0
736787,Zn2BRh,Zn,Rh,B,-3.783,0.337,5.7813112289595106,F-43m,0.004,0.0,0.0,0.001,0.0
736797,Zn2BiRh,Zn,Rh,Bi,-3.342,0.119,6.614964514099998,F-43m,0.004,0.0,0.0,0.001,0.0
736790,Zn2GaRh,Zn,Rh,Ga,-3.44,-0.232,6.11325613099438,F-43m,0.0,0.0,0.0,0.0,0.0
736791,Zn2GeRh,Zn,Rh,Ge,-3.701,-0.095,6.218743142000635,F-43m,0.0,0.0,0.0,0.0,0.0
736793,Zn2InRh,Zn,Rh,In,-3.254,-0.123,6.350794535503233,F-43m,0.0,0.0,0.0,0.0,0.0
484097,MgZn2Rh,Zn,Rh,Mg,-3.176,-0.34,6.168413757071581,Fm-3m,0.0,0.0,0.0,0.0,0.0
736796,Zn2RhPb,Zn,Rh,Pb,-3.268,0.108,6.563248440715603,F-43m,0.0,0.0,0.0,0.0,0.0
736795,Zn2SbRh,Zn,Rh,Sb,-3.479,0.001,6.453458474149729,F-43m,-0.0,0.0,0.0,0.0,0.0
736789,Zn2SiRh,Zn,Rh,Si,-3.928,-0.121,6.045141011291314,F-43m,0.0,0.0,0.0,0.0,0.0
736794,Zn2SnRh,Zn,Rh,Sn,-3.523,-0.094,6.40611394912337,F-43m,0.0,0.0,0.0,0.0,0.0
736749,AlZn2Ru,Zn,Ru,Al,-4.009,-0.139,6.071297568437172,F-43m,0.008,0.0,0.0,0.002,0.0
736753,Zn2AsRu,Zn,Ru,As,-3.905,0.192,6.200901707215183,F-43m,0.004,0.0,0.0,0.002,0.0
736748,Zn2BRu,Zn,Ru,B,-4.113,0.49,5.765149715523552,F-43m,0.004,0.0,0.0,0.002,0.0
736758,Zn2BiRu,Zn,Ru,Bi,-3.555,0.388,6.587057587606124,F-43m,-0.004,0.0,0.0,-0.003,0.0
736751,Zn2GaRu,Zn,Ru,Ga,-3.705,-0.014,6.099095091065123,F-43m,0.004,0.0,0.0,0.001,0.0
736752,Zn2GeRu,Zn,Ru,Ge,-3.947,0.143,6.144068575623486,F-43m,0.004,0.0,0.0,0.002,0.0
736754,Zn2InRu,Zn,Ru,In,-3.474,0.139,6.339667408838311,F-43m,-0.012,0.0,0.0,-0.006,0.0
482072,MgZn2Ru,Zn,Ru,Mg,-3.416,-0.097,6.160835328334635,Fm-3m,0.0,0.0,0.0,0.0,0.0
736757,Zn2RuPb,Zn,Ru,Pb,-3.442,0.417,6.528896983625767,F-43m,0.124,0.001,0.004,0.092,0.003
736756,Zn2SbRu,Zn,Ru,Sb,-3.724,0.239,6.424644562389906,F-43m,0.012,0.0,0.0,0.004,0.0
736750,Zn2SiRu,Zn,Ru,Si,-4.228,0.062,6.014041189275707,F-43m,0.012,0.0,0.0,0.004,0.0
736755,Zn2SnRu,Zn,Ru,Sn,-3.753,0.159,6.373457784062083,F-43m,0.0,0.0,0.0,0.0,0.0
557967,Zr2AlAg,Zr,Ag,Al,-6.121,-0.205,6.811974288192748,Fm-3m,0.0,0.0,0.0,0.0,0.0
556910,Zr2AgAs,Zr,Ag,As,-6.507,-0.365,6.759388855036043,Fm-3m,0.0,0.0,0.0,0.0,0.0
556246,Zr2AgB,Zr,Ag,B,-6.463,0.186,6.517867997015228,Fm-3m,0.0,0.0,0.0,0.0,0.0
556695,Zr2AgBi,Zr,Ag,Bi,-6.067,-0.079,7.045902419105146,Fm-3m,0.0,0.0,0.0,0.0,0.0
556056,Zr2GaAg,Zr,Ag,Ga,-6.022,-0.285,6.805992410910127,Fm-3m,0.0,0.0,0.0,0.0,0.0
558199,Zr2AgGe,Zr,Ag,Ge,-6.446,-0.311,6.792032189961861,Fm-3m,0.0,0.0,0.0,0.0,0.0
557923,Zr2InAg,Zr,Ag,In,-5.813,-0.154,6.950066421048009,Fm-3m,0.0,0.0,0.0,0.0,0.0
557450,Zr2AgPb,Zr,Ag,Pb,-5.96,-0.055,7.019916071106381,Fm-3m,0.0,0.0,0.0,0.0,0.0
557802,Zr2AgSb,Zr,Ag,Sb,-6.277,-0.269,6.95381844239154,Fm-3m,0.0,0.0,0.0,0.0,0.0
557505,Zr2SiAg,Zr,Ag,Si,-6.626,-0.291,6.703243398835649,Fm-3m,0.0,0.0,0.0,0.0,0.0
557181,Zr2AgSn,Zr,Ag,Sn,-6.223,-0.265,6.950066421048009,Fm-3m,0.0,0.0,0.0,0.0,0.0
557422,Zr2ZnAg,Zr,Ag,Zn,-5.393,-0.097,6.785435957453564,Fm-3m,0.0,0.0,0.0,0.0,0.0
556229,Zr2AlAu,Zr,Au,Al,-6.407,-0.38,6.83556910118081,Fm-3m,0.0,0.0,0.0,0.0,0.0
556063,Zr2AsAu,Zr,Au,As,-6.84,-0.587,6.756702989409981,Fm-3m,0.0,0.0,0.0,0.0,0.0
558104,Zr2BAu,Zr,Au,B,-6.748,0.008,6.558416234759085,Fm-3m,-0.0,5.0,5.0,0.0,0.0
558031,Zr2BiAu,Zr,Au,Bi,-6.383,-0.283,7.048372442560986,Fm-3m,0.0,0.0,0.0,0.0,0.0
556627,Zr2GaAu,Zr,Au,Ga,-6.313,-0.466,6.823792090794711,Fm-3m,-0.0,5.0,5.0,0.0,0.0
556564,Zr2GeAu,Zr,Au,Ge,-6.739,-0.493,6.807028488321612,Fm-3m,0.0,0.0,0.0,0.0,0.0
556204,Zr2InAu,Zr,Au,In,-6.101,-0.33,6.946862963242271,Fm-3m,0.0,0.0,0.0,0.0,0.0
558023,Zr2PbAu,Zr,Au,Pb,-6.253,-0.237,7.005709627327471,Fm-3m,0.0,0.0,0.0,0.0,0.0
557204,Zr2SbAu,Zr,Au,Sb,-6.584,-0.464,6.950839227194632,Fm-3m,0.0,0.0,0.0,0.0,0.0
557752,Zr2SiAu,Zr,Au,Si,-6.906,-0.459,6.749100931922653,Fm-3m,0.0,0.0,0.0,0.0,0.0
557293,Zr2SnAu,Zr,Au,Sn,-6.503,-0.434,6.960870107451481,Fm-3m,0.0,0.0,0.0,0.0,0.0
557176,Zr2ZnAu,Zr,Au,Zn,-5.73,-0.323,6.799769311666545,Fm-3m,0.94,0.262,0.262,0.082,0.035
557376,Zr2AlCd,Zr,Cd,Al,-5.623,-0.188,6.87540074798956,Fm-3m,0.0,0.0,0.0,0.0,0.0
557429,Zr2CdAs,Zr,Cd,As,-5.943,-0.282,6.856166858444125,Fm-3m,0.0,0.0,0.0,0.0,0.0
558027,Zr2CdB,Zr,Cd,B,-5.849,0.319,6.604710442055778,Fm-3m,0.0,0.0,0.0,0.0,0.0
557436,Zr2CdBi,Zr,Cd,Bi,-5.559,-0.051,7.1656802921067895,Fm-3m,0.0,0.0,0.0,0.0,0.0
556383,Zr2CdGa,Zr,Cd,Ga,-5.489,-0.232,6.857074404078557,Fm-3m,0.0,0.0,0.0,0.0,0.0
557324,Zr2CdGe,Zr,Cd,Ge,-5.867,-0.213,6.8656841316817045,Fm-3m,0.0,0.0,0.0,0.0,0.0
556501,Zr2CdIn,Zr,Cd,In,-5.317,-0.138,7.032987162545407,Fm-3m,0.0,0.0,0.0,0.0,0.0
557189,Zr2CdPb,Zr,Cd,Pb,-5.435,-0.01,7.118525975211479,Fm-3m,0.0,0.0,0.0,0.0,0.0
557643,Zr2CdSb,Zr,Cd,Sb,-5.746,-0.218,7.056093519464319,Fm-3m,0.0,0.0,0.0,0.0,0.0
556720,Zr2CdSi,Zr,Cd,Si,-6.043,-0.188,6.782886609733185,Fm-3m,0.0,0.0,0.0,0.0,0.0
557777,Zr2CdSn,Zr,Cd,Sn,-5.685,-0.207,7.041064749424499,Fm-3m,0.0,0.0,0.0,0.0,0.0
557914,Zr2ZnCd,Zr,Cd,Zn,-4.955,-0.14,6.818519299120276,Fm-3m,0.0,0.0,0.0,0.0,0.0
556951,Zr2AlCo,Zr,Co,Al,-7.181,-0.199,6.581398494948058,Fm-3m,0.0,0.0,0.0,0.0,0.0
555976,Zr2CoB,Zr,Co,B,-7.724,-0.008,6.237579600404778,Fm-3m,0.0,0.0,0.0,0.0,0.0
556509,Zr2CoBi,Zr,Co,Bi,-6.986,0.07,6.874272319676036,Fm-3m,-0.036,-0.004,-0.004,-0.055,-0.001
556908,Zr2GaCo,Zr,Co,Ga,-7.144,-0.34,6.5556872306959315,Fm-3m,1.952,0.127,0.127,1.511,0.073
557491,MgZr2Co,Zr,Co,Mg,-6.375,0.057,6.63973580020059,Fm-3m,0.008,0.001,0.001,-0.005,0.0
557911,Zr2CoPb,Zr,Co,Pb,-6.89,0.082,6.851852732011177,Fm-3m,-0.0,-0.002,-0.002,-0.02,-0.001
558283,Zr2CoSb,Zr,Co,Sb,-7.228,-0.153,6.768947222706693,Fm-3m,0.076,-0.001,0.0,0.205,0.005
557045,Zr2CoSn,Zr,Co,Sn,-7.178,-0.153,6.769180016572224,Fm-3m,0.012,0.001,0.001,0.038,0.002
556212,Zr2ZnCo,Zr,Co,Zn,-6.561,-0.198,6.508312835601257,Fm-3m,0.0,0.0,0.0,0.0,0.0
556698,Zr2AlCu,Zr,Cu,Al,-6.399,-0.26,6.645416782776234,Fm-3m,0.0,0.0,0.0,0.0,0.0
556610,Zr2CuAs,Zr,Cu,As,-6.79,-0.424,6.602264298078391,Fm-3m,0.0,0.0,0.0,0.0,0.0
557295,Zr2CuB,Zr,Cu,B,-6.899,-0.027,6.300008398409901,Fm-3m,0.0,0.0,0.0,0.0,0.0
695946,Zr2CuBi,Zr,Cu,Bi,-6.251,-0.039,6.95425959055249,Fm-3m,0.028,0.007,0.007,0.001,0.001
557562,Zr2GaCu,Zr,Cu,Ga,-6.309,-0.349,6.612647922953798,Fm-3m,0.0,0.0,0.0,0.0,0.0
556519,Zr2CuGe,Zr,Cu,Ge,-6.727,-0.369,6.618618989465826,Fm-3m,0.0,0.0,0.0,0.0,0.0
558125,Zr2InCu,Zr,Cu,In,-6.035,-0.152,6.830771728068112,Fm-3m,0.0,0.0,0.0,0.0,0.0
557365,MgZr2Cu,Zr,Cu,Mg,-5.521,0.067,6.744296966163264,Fm-3m,0.0,0.0,0.0,0.0,0.0
557424,Zr2CuPb,Zr,Cu,Pb,-6.153,-0.024,6.920905580530015,Fm-3m,0.0,0.0,0.0,0.0,0.0
556281,Zr2CuSb,Zr,Cu,Sb,-6.489,-0.257,6.833513908903845,Fm-3m,0.0,0.0,0.0,0.0,0.0
557731,Zr2CuSi,Zr,Cu,Si,-6.933,-0.375,6.549227809440728,Fm-3m,0.0,0.0,0.0,0.0,0.0
557458,Zr2CuSn,Zr,Cu,Sn,-6.435,-0.254,6.835911513098488,Fm-3m,0.0,0.0,0.0,0.0,0.0
557762,Zr2ZnCu,Zr,Cu,Zn,-5.693,-0.174,6.584106231249079,Fm-3m,0.0,0.0,0.0,0.0,0.0
556072,Zr2AlFe,Zr,Fe,Al,-7.44,-0.153,6.569186020288267,Fm-3m,-0.012,-0.001,-0.001,-0.033,-0.001
557842,Zr2FeAs,Zr,Fe,As,-7.852,-0.338,6.573261888344139,Fm-3m,2.096,-0.056,-0.056,2.128,0.053
556642,Zr2FeB,Zr,Fe,B,-7.992,0.028,6.26908512860486,Fm-3m,1.152,-0.22,-0.221,1.566,0.1
557826,Zr2FeBi,Zr,Fe,Bi,-7.168,0.192,6.874723735455225,Fm-3m,-0.012,-0.001,-0.001,-0.018,-0.001
557305,Zr2GaFe,Zr,Fe,Ga,-7.332,-0.224,6.554694302040566,Fm-3m,0.008,0.0,0.0,0.016,0.0
557506,Zr2FeGe,Zr,Fe,Ge,-7.837,-0.331,6.594547072395425,Fm-3m,2.012,-0.08,-0.08,2.126,0.053
557645,Zr2InFe,Zr,Fe,In,-7.152,-0.075,6.921239601070134,Fm-3m,1.332,5.0,5.0,5.0,0.0
556544,MgZr2Fe,Zr,Fe,Mg,-6.66,0.077,6.664923988945291,Fm-3m,0.252,-0.237,-0.237,1.026,-0.005
556270,Zr2FePb,Zr,Fe,Pb,-7.352,0.183,7.078091562184168,Fm-3m,2.396,5.0,5.0,5.0,0.0
556253,Zr2FeSb,Zr,Fe,Sb,-7.575,-0.195,6.797923241243133,Fm-3m,2.184,-0.064,-0.064,2.279,0.044
557193,Zr2FeSi,Zr,Fe,Si,-8.049,-0.342,6.514350935166087,Fm-3m,2.016,-0.067,-0.067,2.093,0.049
557633,Zr2FeSn,Zr,Fe,Sn,-7.388,-0.059,6.767666570134037,Fm-3m,-0.0,-0.001,-0.001,0.009,0.0
556303,Zr2ZnFe,Zr,Fe,Zn,-6.817,-0.15,6.500244566734785,Fm-3m,0.012,-0.007,-0.007,0.035,0.0
557209,Zr2AlIr,Zr,Ir,Al,-7.893,-0.469,6.6984922723045,Fm-3m,0.0,0.0,0.0,0.0,0.0
558308,Zr2AsIr,Zr,Ir,As,-8.231,-0.581,6.685153134636684,Fm-3m,0.0,0.0,0.0,0.0,0.0
558168,Zr2BIr,Zr,Ir,B,-8.269,-0.113,6.439726850804252,Fm-3m,0.0,0.0,0.0,0.0,0.0
558128,Zr2BiIr,Zr,Ir,Bi,-7.707,-0.21,6.955913397889641,Fm-3m,0.0,0.0,0.0,0.0,0.0
556867,Zr2GaIr,Zr,Ir,Ga,-7.781,-0.535,6.685033795261197,Fm-3m,0.0,0.0,0.0,0.0,0.0
556600,Zr2GeIr,Zr,Ir,Ge,-8.153,-0.509,6.693615362828137,Fm-3m,0.0,0.0,0.0,0.0,0.0
558215,Zr2InIr,Zr,Ir,In,-7.513,-0.345,6.839105704814874,Fm-3m,0.0,0.0,0.0,0.0,0.0
557248,MgZr2Ir,Zr,Ir,Mg,-7.203,-0.33,6.751090815938867,Fm-3m,0.0,0.0,0.0,0.0,0.0
556608,Zr2IrPb,Zr,Ir,Pb,-7.601,-0.187,6.917563600397394,Fm-3m,0.0,0.0,0.0,0.0,0.0
556560,Zr2SbIr,Zr,Ir,Sb,-7.913,-0.397,6.86805933148183,Fm-3m,0.0,0.0,0.0,0.0,0.0
557676,Zr2SiIr,Zr,Ir,Si,-8.333,-0.49,6.642154427424866,Fm-3m,0.0,0.0,0.0,0.0,0.0
557036,Zr2SnIr,Zr,Ir,Sn,-7.86,-0.394,6.860702186534783,Fm-3m,0.0,0.0,0.0,0.0,0.0